LAMMPS (11 Nov 2013)
# created by fftool

units real
boundary p p p

atom_style full
bond_style harmonic
angle_style harmonic
dihedral_style opls
special_bonds lj/coul 0.0 0.0 0.5

read_data data.1.lmp
  1 = max bonds/atom
  10 = max angles/atom
  12 = max dihedrals/atom
  orthogonal box = (-13.4438 -13.4438 -13.4438) to (13.4438 13.4438 13.4438)
  2 by 2 by 2 MPI processor grid
  1090 atoms
  729 bonds
  377 angles
  16 dihedrals
  5 = max # of 1-2 neighbors
  4 = max # of 1-3 neighbors
  8 = max # of 1-4 neighbors
  9 = max # of special neighbors
# read_restart restart.*.lmp
# reset_timestep 0

pair_style hybrid lj/cut/coul/long 10.0 10.0   lj/cut/coul/long/soft 1 0.5 10.0 10.0 10.0
pair_modify tail no
kspace_style pppm 1.0e-4

pair_coeff    1    1  none  # CO-C CO-C
pair_coeff    1    2  none  # CO-C CD-
pair_coeff    1    3  none  # CO-C HD-
pair_coeff    1    4  none  # CO-C H1-H
pair_coeff    1    5  none  # CO-C OH-D
pair_coeff    1    6  none  # CO-C HO-D
pair_coeff    1    7  lj/cut/coul/long    0.0000   1.0000  # CO-C Hw
pair_coeff    1    8  lj/cut/coul/long    0.1013   3.3286  # CO-C Ow
pair_coeff    2    2  none  # CD- CD-
pair_coeff    2    3  none  # CD- HD-
pair_coeff    2    4  none  # CD- H1-H
pair_coeff    2    5  none  # CD- OH-D
pair_coeff    2    6  none  # CD- HO-D
pair_coeff    2    7  lj/cut/coul/long/soft    0.0000   1.0000  0.0  # CD- Hw
pair_coeff    2    8  lj/cut/coul/long/soft    0.1013   3.3286  0.0  # CD- Ow
pair_coeff    3    3  none  # HD- HD-
pair_coeff    3    4  lj/cut/coul/long/soft    0.0300   2.5000  0.0  # HD- H1-H
pair_coeff    3    5  none  # HD- OH-D
pair_coeff    3    6  none  # HD- HO-D
pair_coeff    3    7  lj/cut/coul/long/soft    0.0000   1.0000  0.0  # HD- Hw
pair_coeff    3    8  lj/cut/coul/long/soft    0.0683   2.8131  0.0  # HD- Ow
pair_coeff    4    4  none  # H1-H H1-H
pair_coeff    4    5  none  # H1-H OH-D
pair_coeff    4    6  lj/cut/coul/long/soft    0.0000   1.0000  1.0 # H1-H HO-D
pair_coeff    4    7  lj/cut/coul/long    0.0000   1.0000  # H1-H Hw
pair_coeff    4    8  lj/cut/coul/long    0.0683   2.8131  # H1-H Ow
pair_coeff    5    5  none  # OH-D OH-D
pair_coeff    5    6  none  # OH-D HO-D
pair_coeff    5    7  lj/cut/coul/long/soft    0.0000   1.0000  1.0  # OH-D Hw
pair_coeff    5    8  lj/cut/coul/long/soft    0.1625   3.1427  1.0  # OH-D Ow
pair_coeff    6    6  none  # HO-D HO-D
pair_coeff    6    7  lj/cut/coul/long/soft    0.0000   1.0000  1.0  # HO-D Hw
pair_coeff    6    8  lj/cut/coul/long/soft    0.0000   1.7792  1.0  # HO-D Ow
pair_coeff    7    7  lj/cut/coul/long    0.0000   1.0000  # Hw Hw
pair_coeff    7    8  lj/cut/coul/long    0.0000   1.0000  # Hw Ow
pair_coeff    8    8  lj/cut/coul/long    0.1554   3.1655  # Ow Ow

variable nsteps equal 2500000
variable nprint equal ${nsteps}/500
variable nprint equal 2500000/500
variable ndump equal ${nsteps}/100
variable ndump equal 2500000/100
# variable nrestart equal ${nsteps}/10

variable temp equal 300.0
variable press equal 1.0

neighbor 2.0 bin

timestep 2.0

# velocity all create ${temp} 12345

thermo_style multi
thermo ${nprint}
thermo 5000

fix fSHAKE all shake 0.0001 20 ${nprint} b 2 4 5 a 6
fix fSHAKE all shake 0.0001 20 5000 b 2 4 5 a 6
  1 = # of size 2 clusters
  0 = # of size 3 clusters
  2 = # of size 4 clusters
  360 = # of frozen angles

fix fNPT all npt temp ${temp} ${temp} 100 iso ${press} ${press} 500
fix fNPT all npt temp 300 ${temp} 100 iso ${press} ${press} 500
fix fNPT all npt temp 300 300 100 iso ${press} ${press} 500
fix fNPT all npt temp 300 300 100 iso 1 ${press} 500
fix fNPT all npt temp 300 300 100 iso 1 1 500

run 250000
PPPM initialization ...
  G vector (1/distance) = 0.270213
  grid = 15 15 15
  stencil order = 5
  estimated absolute RMS force accuracy = 0.0169285
  estimated relative force accuracy = 5.09797e-05
  using double precision FFTs
  3d grid and FFT values/proc = 2744 512
SHAKE stats (type/ave/delta) on step 0
  2 1.09 4.99625e-06
  4 0.945001 0
  5 1 1.58341e-05
  6 109.47 0.0012593
Memory usage per processor = 9.53747 Mbytes
---------------- Step        0 ----- CPU =      0.0000 (sec) ----------------
TotEng   =      -266.5942 KinEng   =         0.0000 Temp     =         0.0000 
PotEng   =      -266.5942 E_bond   =         0.0000 E_angle  =         0.3094 
E_dihed  =         0.0001 E_impro  =         0.0000 E_vdwl   =      -192.3381 
E_coul   =     19401.7505 E_long   =    -19476.3160 Press    =       407.3990 
Volume   =     19438.0383 
SHAKE stats (type/ave/delta) on step 5000
  2 1.08998 1.55203e-07
  4 0.944979 0
  5 0.999978 4.89533e-06
  6 109.47 0.000421376
---------------- Step     5000 ----- CPU =     13.2376 (sec) ----------------
TotEng   =     -3383.4942 KinEng   =       634.9394 Temp     =       293.1317 
PotEng   =     -4018.4336 E_bond   =         0.0365 E_angle  =         3.5699 
E_dihed  =         0.7006 E_impro  =         0.0000 E_vdwl   =       748.4963 
E_coul   =     14906.7004 E_long   =    -19677.9374 Press    =      -406.3960 
Volume   =     11087.1286 
SHAKE stats (type/ave/delta) on step 10000
  2 1.09003 1.53239e-06
  4 0.945028 0
  5 1.00003 5.36239e-06
  6 109.47 0.000435909
---------------- Step    10000 ----- CPU =     27.2731 (sec) ----------------
TotEng   =     -3345.7009 KinEng   =       642.2332 Temp     =       296.4990 
PotEng   =     -3987.9341 E_bond   =         0.6767 E_angle  =         4.4609 
E_dihed  =         0.2467 E_impro  =         0.0000 E_vdwl   =       799.8138 
E_coul   =     14887.3334 E_long   =    -19680.4656 Press    =       552.5857 
Volume   =     11122.4632 
SHAKE stats (type/ave/delta) on step 15000
  2 1.09013 6.02464e-07
  4 0.945114 0
  5 1.00012 6.10861e-06
  6 109.47 0.000626799
---------------- Step    15000 ----- CPU =     42.7959 (sec) ----------------
TotEng   =     -3382.4670 KinEng   =       647.2520 Temp     =       298.8160 
PotEng   =     -4029.7190 E_bond   =         0.0095 E_angle  =         3.0781 
E_dihed  =         0.3451 E_impro  =         0.0000 E_vdwl   =       699.4619 
E_coul   =     14946.7340 E_long   =    -19679.3476 Press    =     -1383.0799 
Volume   =     11017.9983 
SHAKE stats (type/ave/delta) on step 20000
  2 1.08996 6.9901e-07
  4 0.944969 0
  5 0.999968 5.19639e-06
  6 109.47 0.000464438
---------------- Step    20000 ----- CPU =     58.3178 (sec) ----------------
TotEng   =     -3340.1098 KinEng   =       653.7106 Temp     =       301.7978 
PotEng   =     -3993.8204 E_bond   =         0.5980 E_angle  =         3.4706 
E_dihed  =         0.6126 E_impro  =         0.0000 E_vdwl   =       761.2447 
E_coul   =     14918.6014 E_long   =    -19678.3477 Press    =       103.8673 
Volume   =     10905.2641 
SHAKE stats (type/ave/delta) on step 25000
  2 1.08999 8.31898e-07
  4 0.944994 0
  5 0.999995 5.24414e-06
  6 109.47 0.000505141
---------------- Step    25000 ----- CPU =     73.6039 (sec) ----------------
TotEng   =     -3426.4304 KinEng   =       606.3649 Temp     =       279.9397 
PotEng   =     -4032.7954 E_bond   =         0.0443 E_angle  =         5.5551 
E_dihed  =         0.5483 E_impro  =         0.0000 E_vdwl   =       727.2570 
E_coul   =     14914.7425 E_long   =    -19680.9425 Press    =      -784.4818 
Volume   =     10858.5036 
SHAKE stats (type/ave/delta) on step 30000
  2 1.0901 1.15058e-06
  4 0.945085 0
  5 1.00009 9.92902e-06
  6 109.47 0.000580593
---------------- Step    30000 ----- CPU =     88.6031 (sec) ----------------
TotEng   =     -3381.5229 KinEng   =       645.5075 Temp     =       298.0106 
PotEng   =     -4027.0303 E_bond   =         1.0147 E_angle  =         4.5064 
E_dihed  =         0.7444 E_impro  =         0.0000 E_vdwl   =       731.0098 
E_coul   =     14916.9920 E_long   =    -19681.2976 Press    =     -1326.4168 
Volume   =     11257.3218 
SHAKE stats (type/ave/delta) on step 35000
  2 1.08993 3.95473e-07
  4 0.944942 1.66533e-15
  5 0.999939 4.14112e-06
  6 109.47 0.000451673
---------------- Step    35000 ----- CPU =    103.2277 (sec) ----------------
TotEng   =     -3409.2922 KinEng   =       649.3395 Temp     =       299.7797 
PotEng   =     -4058.6317 E_bond   =         0.7021 E_angle  =         2.6661 
E_dihed  =         1.2541 E_impro  =         0.0000 E_vdwl   =       792.3219 
E_coul   =     14825.9423 E_long   =    -19681.5182 Press    =       100.5285 
Volume   =     10906.6112 
SHAKE stats (type/ave/delta) on step 40000
  2 1.08995 1.6058e-06
  4 0.944957 0
  5 0.999956 1.07313e-05
  6 109.47 0.00115931
---------------- Step    40000 ----- CPU =    117.5786 (sec) ----------------
TotEng   =     -3441.9406 KinEng   =       642.0275 Temp     =       296.4040 
PotEng   =     -4083.9681 E_bond   =         0.6100 E_angle  =         3.0456 
E_dihed  =         0.7014 E_impro  =         0.0000 E_vdwl   =       792.6662 
E_coul   =     14801.0926 E_long   =    -19682.0840 Press    =       118.3098 
Volume   =     10963.8694 
SHAKE stats (type/ave/delta) on step 45000
  2 1.08998 1.04599e-06
  4 0.944986 0
  5 0.999986 5.35186e-06
  6 109.47 0.000627756
---------------- Step    45000 ----- CPU =    131.4768 (sec) ----------------
TotEng   =     -3356.3747 KinEng   =       623.6826 Temp     =       287.9348 
PotEng   =     -3980.0573 E_bond   =         0.3499 E_angle  =         4.3720 
E_dihed  =         0.9749 E_impro  =         0.0000 E_vdwl   =       778.6759 
E_coul   =     14913.3521 E_long   =    -19677.7821 Press    =       125.1045 
Volume   =     11142.7284 
SHAKE stats (type/ave/delta) on step 50000
  2 1.08996 9.49036e-07
  4 0.944964 0
  5 0.999963 4.65203e-06
  6 109.47 0.000428836
---------------- Step    50000 ----- CPU =    145.9731 (sec) ----------------
TotEng   =     -3415.6154 KinEng   =       642.8721 Temp     =       296.7939 
PotEng   =     -4058.4874 E_bond   =         0.4910 E_angle  =         3.3165 
E_dihed  =         1.1549 E_impro  =         0.0000 E_vdwl   =       787.4621 
E_coul   =     14827.4355 E_long   =    -19678.3475 Press    =        85.2153 
Volume   =     10850.9887 
SHAKE stats (type/ave/delta) on step 55000
  2 1.09014 2.6851e-06
  4 0.945122 0
  5 1.00013 8.49848e-06
  6 109.47 0.000741435
---------------- Step    55000 ----- CPU =    160.8992 (sec) ----------------
TotEng   =     -3357.3893 KinEng   =       684.0642 Temp     =       315.8110 
PotEng   =     -4041.4534 E_bond   =         0.4871 E_angle  =         3.7468 
E_dihed  =         0.0439 E_impro  =         0.0000 E_vdwl   =       750.0611 
E_coul   =     14882.0813 E_long   =    -19677.8737 Press    =      -363.1159 
Volume   =     11019.5048 
SHAKE stats (type/ave/delta) on step 60000
  2 1.0901 3.53394e-07
  4 0.945086 0
  5 1.00009 5.60606e-06
  6 109.47 0.000348753
---------------- Step    60000 ----- CPU =    174.9508 (sec) ----------------
TotEng   =     -3383.9519 KinEng   =       626.2951 Temp     =       289.1409 
PotEng   =     -4010.2471 E_bond   =         0.1148 E_angle  =         3.5210 
E_dihed  =         1.6876 E_impro  =         0.0000 E_vdwl   =       756.3407 
E_coul   =     14909.3413 E_long   =    -19681.2525 Press    =      -476.4276 
Volume   =     11203.8238 
SHAKE stats (type/ave/delta) on step 65000
  2 1.09004 1.91312e-07
  4 0.945031 0
  5 1.00003 3.90185e-06
  6 109.47 0.000373418
---------------- Step    65000 ----- CPU =    188.9010 (sec) ----------------
TotEng   =     -3356.8472 KinEng   =       648.8496 Temp     =       299.5536 
PotEng   =     -4005.6968 E_bond   =         0.3377 E_angle  =         4.0560 
E_dihed  =         0.3289 E_impro  =         0.0000 E_vdwl   =       645.4054 
E_coul   =     15022.9356 E_long   =    -19678.7603 Press    =     -2539.1267 
Volume   =     11255.0718 
SHAKE stats (type/ave/delta) on step 70000
  2 1.09003 2.44728e-07
  4 0.945027 0
  5 1.00003 3.86439e-06
  6 109.47 0.000372428
---------------- Step    70000 ----- CPU =    203.0709 (sec) ----------------
TotEng   =     -3363.2180 KinEng   =       642.0859 Temp     =       296.4310 
PotEng   =     -4005.3040 E_bond   =         0.0973 E_angle  =         5.9860 
E_dihed  =         3.4479 E_impro  =         0.0000 E_vdwl   =       767.4301 
E_coul   =     14894.4859 E_long   =    -19676.7511 Press    =       227.0095 
Volume   =     10768.9279 
SHAKE stats (type/ave/delta) on step 75000
  2 1.08992 3.81983e-06
  4 0.944928 0
  5 0.999925 8.58495e-06
  6 109.47 0.000927398
---------------- Step    75000 ----- CPU =    217.2929 (sec) ----------------
TotEng   =     -3335.4314 KinEng   =       655.6464 Temp     =       302.6914 
PotEng   =     -3991.0778 E_bond   =         1.3033 E_angle  =         2.6595 
E_dihed  =         3.1758 E_impro  =         0.0000 E_vdwl   =       764.1239 
E_coul   =     14919.5029 E_long   =    -19681.8432 Press    =        35.7110 
Volume   =     11091.0593 
SHAKE stats (type/ave/delta) on step 80000
  2 1.09 3.71654e-07
  4 0.945001 0
  5 1 4.7633e-06
  6 109.47 0.00047909
---------------- Step    80000 ----- CPU =    231.8999 (sec) ----------------
TotEng   =     -3416.4359 KinEng   =       631.4332 Temp     =       291.5129 
PotEng   =     -4047.8691 E_bond   =         0.3253 E_angle  =         5.1730 
E_dihed  =         3.0343 E_impro  =         0.0000 E_vdwl   =       789.9565 
E_coul   =     14832.7447 E_long   =    -19679.1029 Press    =       159.5114 
Volume   =     10967.2255 
SHAKE stats (type/ave/delta) on step 85000
  2 1.09003 9.89465e-07
  4 0.945024 0
  5 1.00003 1.18475e-05
  6 109.47 0.000665894
---------------- Step    85000 ----- CPU =    247.5876 (sec) ----------------
TotEng   =     -3324.8249 KinEng   =       650.8993 Temp     =       300.4999 
PotEng   =     -3975.7243 E_bond   =         0.0711 E_angle  =         2.4652 
E_dihed  =         0.2260 E_impro  =         0.0000 E_vdwl   =       715.4945 
E_coul   =     14983.0746 E_long   =    -19677.0556 Press    =      -774.7945 
Volume   =     11070.6600 
SHAKE stats (type/ave/delta) on step 90000
  2 1.09002 1.89812e-06
  4 0.945017 0
  5 1.00002 9.78569e-06
  6 109.47 0.000775207
---------------- Step    90000 ----- CPU =    263.1811 (sec) ----------------
TotEng   =     -3328.6386 KinEng   =       651.6756 Temp     =       300.8582 
PotEng   =     -3980.3142 E_bond   =         1.2369 E_angle  =         5.4758 
E_dihed  =         1.0874 E_impro  =         0.0000 E_vdwl   =       741.1274 
E_coul   =     14949.8713 E_long   =    -19679.1130 Press    =      -474.6910 
Volume   =     11173.9158 
SHAKE stats (type/ave/delta) on step 95000
  2 1.08993 1.01037e-06
  4 0.944943 0
  5 0.999941 4.12993e-06
  6 109.47 0.000378564
---------------- Step    95000 ----- CPU =    278.9106 (sec) ----------------
TotEng   =     -3354.4992 KinEng   =       636.4184 Temp     =       293.8145 
PotEng   =     -3990.9176 E_bond   =         0.2295 E_angle  =         4.3092 
E_dihed  =         0.6261 E_impro  =         0.0000 E_vdwl   =       759.3081 
E_coul   =     14922.1164 E_long   =    -19677.5069 Press    =        23.1500 
Volume   =     11102.5199 
SHAKE stats (type/ave/delta) on step 100000
  2 1.08996 2.69869e-06
  4 0.944969 0
  5 0.999967 6.19999e-06
  6 109.47 0.000807005
---------------- Step   100000 ----- CPU =    292.9562 (sec) ----------------
TotEng   =     -3407.8985 KinEng   =       653.2829 Temp     =       301.6003 
PotEng   =     -4061.1814 E_bond   =         0.5919 E_angle  =         1.3075 
E_dihed  =         0.4663 E_impro  =         0.0000 E_vdwl   =       797.0183 
E_coul   =     14817.1160 E_long   =    -19677.6815 Press    =       -42.8806 
Volume   =     11094.0219 
SHAKE stats (type/ave/delta) on step 105000
  2 1.08998 8.74042e-07
  4 0.944982 0
  5 0.999982 6.15791e-06
  6 109.47 0.000847402
---------------- Step   105000 ----- CPU =    307.2070 (sec) ----------------
TotEng   =     -3365.7763 KinEng   =       685.8710 Temp     =       316.6452 
PotEng   =     -4051.6473 E_bond   =         0.7228 E_angle  =         2.1779 
E_dihed  =         0.6094 E_impro  =         0.0000 E_vdwl   =       716.2686 
E_coul   =     14906.4240 E_long   =    -19677.8501 Press    =      -942.5434 
Volume   =     10853.0242 
SHAKE stats (type/ave/delta) on step 110000
  2 1.09003 1.37498e-07
  4 0.945026 0
  5 1.00003 5.19846e-06
  6 109.47 0.000427973
---------------- Step   110000 ----- CPU =    322.7109 (sec) ----------------
TotEng   =     -3363.3757 KinEng   =       654.3297 Temp     =       302.0836 
PotEng   =     -4017.7054 E_bond   =         0.6988 E_angle  =         3.1840 
E_dihed  =         0.8508 E_impro  =         0.0000 E_vdwl   =       759.2326 
E_coul   =     14896.4248 E_long   =    -19678.0964 Press    =       416.6138 
Volume   =     10738.0970 
SHAKE stats (type/ave/delta) on step 115000
  2 1.09007 1.60335e-07
  4 0.945061 0
  5 1.00007 4.13026e-06
  6 109.47 0.00038945
---------------- Step   115000 ----- CPU =    338.0010 (sec) ----------------
TotEng   =     -3383.5328 KinEng   =       651.6622 Temp     =       300.8521 
PotEng   =     -4035.1950 E_bond   =         0.5874 E_angle  =         2.3192 
E_dihed  =         0.3735 E_impro  =         0.0000 E_vdwl   =       729.8080 
E_coul   =     14912.1713 E_long   =    -19680.4545 Press    =      -928.7459 
Volume   =     10905.4019 
SHAKE stats (type/ave/delta) on step 120000
  2 1.08997 8.95503e-07
  4 0.944977 0
  5 0.999975 1.38503e-05
  6 109.47 0.00117007
---------------- Step   120000 ----- CPU =    352.4852 (sec) ----------------
TotEng   =     -3380.9735 KinEng   =       655.3416 Temp     =       302.5507 
PotEng   =     -4036.3151 E_bond   =         0.2960 E_angle  =         3.7196 
E_dihed  =         0.5207 E_impro  =         0.0000 E_vdwl   =       750.6556 
E_coul   =     14888.7315 E_long   =    -19680.2385 Press    =       -84.2341 
Volume   =     10786.7825 
SHAKE stats (type/ave/delta) on step 125000
  2 1.08998 3.10787e-06
  4 0.944982 0
  5 0.999981 7.34713e-06
  6 109.47 0.000847571
---------------- Step   125000 ----- CPU =    366.7678 (sec) ----------------
TotEng   =     -3369.4514 KinEng   =       636.2912 Temp     =       293.7558 
PotEng   =     -4005.7426 E_bond   =         0.1293 E_angle  =         2.7580 
E_dihed  =         2.4297 E_impro  =         0.0000 E_vdwl   =       668.9000 
E_coul   =     14998.8122 E_long   =    -19678.7717 Press    =     -1556.3297 
Volume   =     10884.7819 
SHAKE stats (type/ave/delta) on step 130000
  2 1.08995 8.16011e-07
  4 0.944953 0
  5 0.999951 4.59356e-06
  6 109.47 0.000387853
---------------- Step   130000 ----- CPU =    380.2743 (sec) ----------------
TotEng   =     -3373.4490 KinEng   =       646.7780 Temp     =       298.5972 
PotEng   =     -4020.2269 E_bond   =         0.5119 E_angle  =         5.0554 
E_dihed  =         0.1824 E_impro  =         0.0000 E_vdwl   =       745.1593 
E_coul   =     14909.1371 E_long   =    -19680.2730 Press    =      -354.8904 
Volume   =     10951.0953 
SHAKE stats (type/ave/delta) on step 135000
  2 1.09 8.324e-07
  4 0.945004 0
  5 1.00001 6.53817e-06
  6 109.47 0.000558569
---------------- Step   135000 ----- CPU =    393.4904 (sec) ----------------
TotEng   =     -3353.8140 KinEng   =       664.5625 Temp     =       306.8077 
PotEng   =     -4018.3765 E_bond   =         0.7660 E_angle  =         3.1594 
E_dihed  =         0.2996 E_impro  =         0.0000 E_vdwl   =       757.3730 
E_coul   =     14900.6812 E_long   =    -19680.6558 Press    =      -115.4601 
Volume   =     11019.0300 
SHAKE stats (type/ave/delta) on step 140000
  2 1.08998 2.29382e-06
  4 0.944983 0
  5 0.99998 1.07487e-05
  6 109.47 0.00108401
---------------- Step   140000 ----- CPU =    406.7627 (sec) ----------------
TotEng   =     -3428.3138 KinEng   =       621.2678 Temp     =       286.8199 
PotEng   =     -4049.5816 E_bond   =         0.1545 E_angle  =         4.0557 
E_dihed  =         0.5333 E_impro  =         0.0000 E_vdwl   =       752.0103 
E_coul   =     14871.9442 E_long   =    -19678.2796 Press    =      -722.5086 
Volume   =     10949.9358 
SHAKE stats (type/ave/delta) on step 145000
  2 1.0901 2.15412e-06
  4 0.945084 0
  5 1.00009 8.23928e-06
  6 109.47 0.000921595
---------------- Step   145000 ----- CPU =    420.1421 (sec) ----------------
TotEng   =     -3359.1642 KinEng   =       689.5253 Temp     =       318.3323 
PotEng   =     -4048.6896 E_bond   =         0.6114 E_angle  =         3.0332 
E_dihed  =         1.8910 E_impro  =         0.0000 E_vdwl   =       786.2349 
E_coul   =     14838.5748 E_long   =    -19679.0349 Press    =       415.6178 
Volume   =     10855.0146 
SHAKE stats (type/ave/delta) on step 150000
  2 1.09003 3.08646e-08
  4 0.945026 0
  5 1.00003 4.22364e-06
  6 109.47 0.000405806
---------------- Step   150000 ----- CPU =    434.3705 (sec) ----------------
TotEng   =     -3332.5566 KinEng   =       642.5280 Temp     =       296.6351 
PotEng   =     -3975.0846 E_bond   =         1.5319 E_angle  =         2.8552 
E_dihed  =         0.9809 E_impro  =         0.0000 E_vdwl   =       762.6124 
E_coul   =     14934.4192 E_long   =    -19677.4842 Press    =       -98.9194 
Volume   =     11123.1999 
SHAKE stats (type/ave/delta) on step 155000
  2 1.09009 3.74587e-07
  4 0.945081 0
  5 1.00009 3.64235e-06
  6 109.47 0.000386165
---------------- Step   155000 ----- CPU =    448.6372 (sec) ----------------
TotEng   =     -3351.1842 KinEng   =       631.9904 Temp     =       291.7702 
PotEng   =     -3983.1745 E_bond   =         0.1450 E_angle  =         3.8426 
E_dihed  =         0.0890 E_impro  =         0.0000 E_vdwl   =       690.2539 
E_coul   =     15000.6630 E_long   =    -19678.1680 Press    =     -1525.6814 
Volume   =     11209.4694 
SHAKE stats (type/ave/delta) on step 160000
  2 1.09005 1.30301e-07
  4 0.945042 0
  5 1.00005 3.50886e-06
  6 109.47 0.000386808
---------------- Step   160000 ----- CPU =    463.4973 (sec) ----------------
TotEng   =     -3440.7720 KinEng   =       642.0461 Temp     =       296.4126 
PotEng   =     -4082.8181 E_bond   =         0.4474 E_angle  =         2.1156 
E_dihed  =         1.8646 E_impro  =         0.0000 E_vdwl   =       754.3036 
E_coul   =     14837.5928 E_long   =    -19679.1422 Press    =      -703.4855 
Volume   =     10935.9455 
SHAKE stats (type/ave/delta) on step 165000
  2 1.09 6.286e-07
  4 0.944996 0
  5 0.999997 4.41364e-06
  6 109.47 0.000441925
---------------- Step   165000 ----- CPU =    478.2682 (sec) ----------------
TotEng   =     -3356.2795 KinEng   =       674.1373 Temp     =       311.2281 
PotEng   =     -4030.4168 E_bond   =         0.0818 E_angle  =         3.3754 
E_dihed  =         1.1743 E_impro  =         0.0000 E_vdwl   =       711.1698 
E_coul   =     14933.9306 E_long   =    -19680.1487 Press    =     -1118.6753 
Volume   =     11049.4873 
SHAKE stats (type/ave/delta) on step 170000
  2 1.09012 2.77502e-07
  4 0.945105 0
  5 1.00011 5.15431e-06
  6 109.47 0.000565915
---------------- Step   170000 ----- CPU =    493.7477 (sec) ----------------
TotEng   =     -3396.4684 KinEng   =       665.8754 Temp     =       307.4138 
PotEng   =     -4062.3438 E_bond   =         0.5387 E_angle  =         3.1391 
E_dihed  =         0.9322 E_impro  =         0.0000 E_vdwl   =       756.4380 
E_coul   =     14857.0337 E_long   =    -19680.4256 Press    =      -271.9184 
Volume   =     10743.2519 
SHAKE stats (type/ave/delta) on step 175000
  2 1.09003 5.17568e-08
  4 0.945026 0
  5 1.00003 3.66288e-06
  6 109.47 0.000362397
---------------- Step   175000 ----- CPU =    509.5365 (sec) ----------------
TotEng   =     -3391.3794 KinEng   =       645.6030 Temp     =       298.0547 
PotEng   =     -4036.9824 E_bond   =         0.0028 E_angle  =         4.6009 
E_dihed  =         0.9944 E_impro  =         0.0000 E_vdwl   =       806.7407 
E_coul   =     14827.8601 E_long   =    -19677.1814 Press    =       273.9029 
Volume   =     11084.1139 
SHAKE stats (type/ave/delta) on step 180000
  2 1.08997 2.8721e-06
  4 0.944971 0
  5 0.99997 7.38388e-06
  6 109.47 0.000489442
---------------- Step   180000 ----- CPU =    525.3303 (sec) ----------------
TotEng   =     -3329.9114 KinEng   =       653.7465 Temp     =       301.8143 
PotEng   =     -3983.6579 E_bond   =         0.0783 E_angle  =         6.6601 
E_dihed  =         0.4770 E_impro  =         0.0000 E_vdwl   =       804.0053 
E_coul   =     14886.4372 E_long   =    -19681.3158 Press    =       973.1971 
Volume   =     11041.9579 
SHAKE stats (type/ave/delta) on step 185000
  2 1.08995 7.28164e-08
  4 0.944954 0
  5 0.999952 3.38367e-06
  6 109.47 0.000352372
---------------- Step   185000 ----- CPU =    539.4562 (sec) ----------------
TotEng   =     -3355.8276 KinEng   =       674.4826 Temp     =       311.3875 
PotEng   =     -4030.3102 E_bond   =         0.4199 E_angle  =         2.3574 
E_dihed  =         1.3389 E_impro  =         0.0000 E_vdwl   =       729.1354 
E_coul   =     14914.8119 E_long   =    -19678.3737 Press    =      -995.3305 
Volume   =     11076.5593 
SHAKE stats (type/ave/delta) on step 190000
  2 1.09005 6.65106e-07
  4 0.945041 0
  5 1.00004 3.76429e-06
  6 109.47 0.000438155
---------------- Step   190000 ----- CPU =    553.8251 (sec) ----------------
TotEng   =     -3339.0775 KinEng   =       645.9362 Temp     =       298.2085 
PotEng   =     -3985.0136 E_bond   =         0.4332 E_angle  =         3.1787 
E_dihed  =         0.9845 E_impro  =         0.0000 E_vdwl   =       777.8181 
E_coul   =     14910.7862 E_long   =    -19678.2143 Press    =        66.0964 
Volume   =     11273.4654 
SHAKE stats (type/ave/delta) on step 195000
  2 1.08996 2.80305e-06
  4 0.944968 0
  5 0.999963 8.56073e-06
  6 109.47 0.00082838
---------------- Step   195000 ----- CPU =    568.5060 (sec) ----------------
TotEng   =     -3387.1399 KinEng   =       666.3194 Temp     =       307.6188 
PotEng   =     -4053.4593 E_bond   =         0.1115 E_angle  =         1.0849 
E_dihed  =         0.2124 E_impro  =         0.0000 E_vdwl   =       798.8129 
E_coul   =     14826.6105 E_long   =    -19680.2915 Press    =       224.6686 
Volume   =     11243.8597 
SHAKE stats (type/ave/delta) on step 200000
  2 1.09001 1.35736e-06
  4 0.945011 0
  5 1.00001 7.92906e-06
  6 109.47 0.000933979
---------------- Step   200000 ----- CPU =    582.7127 (sec) ----------------
TotEng   =     -3433.0555 KinEng   =       631.5647 Temp     =       291.5737 
PotEng   =     -4064.6202 E_bond   =         0.1694 E_angle  =         2.4534 
E_dihed  =         0.6320 E_impro  =         0.0000 E_vdwl   =       804.6686 
E_coul   =     14808.1739 E_long   =    -19680.7175 Press    =       829.2505 
Volume   =     10772.3533 
SHAKE stats (type/ave/delta) on step 205000
  2 1.09004 4.95236e-07
  4 0.945032 0
  5 1.00003 8.23323e-06
  6 109.47 0.000719926
---------------- Step   205000 ----- CPU =    596.6856 (sec) ----------------
TotEng   =     -3439.2830 KinEng   =       626.8711 Temp     =       289.4068 
PotEng   =     -4066.1541 E_bond   =         0.0296 E_angle  =         4.4253 
E_dihed  =         1.1884 E_impro  =         0.0000 E_vdwl   =       838.6441 
E_coul   =     14769.0435 E_long   =    -19679.4852 Press    =      1031.5383 
Volume   =     10815.9396 
SHAKE stats (type/ave/delta) on step 210000
  2 1.0901 2.05255e-06
  4 0.945083 0
  5 1.00009 1.12125e-05
  6 109.47 0.000824847
---------------- Step   210000 ----- CPU =    610.5461 (sec) ----------------
TotEng   =     -3390.9580 KinEng   =       631.6046 Temp     =       291.5921 
PotEng   =     -4022.5626 E_bond   =         0.6420 E_angle  =         3.6699 
E_dihed  =         0.5165 E_impro  =         0.0000 E_vdwl   =       758.6786 
E_coul   =     14895.5597 E_long   =    -19681.6292 Press    =       261.1855 
Volume   =     10730.0826 
SHAKE stats (type/ave/delta) on step 215000
  2 1.08997 1.6424e-06
  4 0.944975 0
  5 0.999974 8.56398e-06
  6 109.47 0.000732608
---------------- Step   215000 ----- CPU =    624.9121 (sec) ----------------
TotEng   =     -3383.1870 KinEng   =       655.2191 Temp     =       302.4941 
PotEng   =     -4038.4060 E_bond   =         0.0620 E_angle  =         4.4597 
E_dihed  =         1.7680 E_impro  =         0.0000 E_vdwl   =       754.3890 
E_coul   =     14879.8273 E_long   =    -19678.9120 Press    =      -665.2820 
Volume   =     11082.4818 
SHAKE stats (type/ave/delta) on step 220000
  2 1.08993 8.80966e-07
  4 0.944939 0
  5 0.999937 4.77706e-06
  6 109.47 0.000435857
---------------- Step   220000 ----- CPU =    638.9103 (sec) ----------------
TotEng   =     -3356.1662 KinEng   =       635.8580 Temp     =       293.5558 
PotEng   =     -3992.0242 E_bond   =         0.7689 E_angle  =         4.0505 
E_dihed  =         1.9175 E_impro  =         0.0000 E_vdwl   =       782.2375 
E_coul   =     14898.0181 E_long   =    -19679.0168 Press    =       288.1932 
Volume   =     11020.7562 
SHAKE stats (type/ave/delta) on step 225000
  2 1.09009 2.88498e-06
  4 0.945076 0
  5 1.00008 6.20242e-06
  6 109.47 0.000474936
---------------- Step   225000 ----- CPU =    652.9307 (sec) ----------------
TotEng   =     -3440.7994 KinEng   =       621.6358 Temp     =       286.9898 
PotEng   =     -4062.4352 E_bond   =         0.4699 E_angle  =         3.2153 
E_dihed  =         0.9888 E_impro  =         0.0000 E_vdwl   =       800.3717 
E_coul   =     14809.2381 E_long   =    -19676.7190 Press    =       -40.3301 
Volume   =     11055.9053 
SHAKE stats (type/ave/delta) on step 230000
  2 1.08988 1.62322e-06
  4 0.94489 2.22045e-15
  5 0.999888 8.95643e-06
  6 109.47 0.00059277
---------------- Step   230000 ----- CPU =    667.0277 (sec) ----------------
TotEng   =     -3376.0627 KinEng   =       641.5215 Temp     =       296.1704 
PotEng   =     -4017.5841 E_bond   =         0.1276 E_angle  =         5.2405 
E_dihed  =         0.6545 E_impro  =         0.0000 E_vdwl   =       772.5837 
E_coul   =     14883.4306 E_long   =    -19679.6210 Press    =       177.3963 
Volume   =     10980.5292 
SHAKE stats (type/ave/delta) on step 235000
  2 1.08991 3.6746e-07
  4 0.944923 0
  5 0.999919 4.75079e-06
  6 109.47 0.000430776
---------------- Step   235000 ----- CPU =    681.3669 (sec) ----------------
TotEng   =     -3431.0029 KinEng   =       610.7259 Temp     =       281.9531 
PotEng   =     -4041.7288 E_bond   =         0.1899 E_angle  =         4.2212 
E_dihed  =         0.8757 E_impro  =         0.0000 E_vdwl   =       776.9338 
E_coul   =     14852.3562 E_long   =    -19676.3056 Press    =       -40.2067 
Volume   =     11081.1167 
SHAKE stats (type/ave/delta) on step 240000
  2 1.09015 4.02571e-07
  4 0.945127 0
  5 1.00014 3.54539e-06
  6 109.47 0.000386386
---------------- Step   240000 ----- CPU =    695.6388 (sec) ----------------
TotEng   =     -3375.4465 KinEng   =       622.6389 Temp     =       287.4529 
PotEng   =     -3998.0854 E_bond   =         0.5580 E_angle  =         6.9829 
E_dihed  =         0.1721 E_impro  =         0.0000 E_vdwl   =       713.0188 
E_coul   =     14960.9231 E_long   =    -19679.7403 Press    =      -979.9562 
Volume   =     11055.1224 
SHAKE stats (type/ave/delta) on step 245000
  2 1.08996 7.06768e-07
  4 0.944966 2.77556e-15
  5 0.999965 4.87377e-06
  6 109.47 0.000518435
---------------- Step   245000 ----- CPU =    709.7207 (sec) ----------------
TotEng   =     -3324.5074 KinEng   =       681.9648 Temp     =       314.8418 
PotEng   =     -4006.4723 E_bond   =         0.0479 E_angle  =         6.1789 
E_dihed  =         0.7839 E_impro  =         0.0000 E_vdwl   =       780.2518 
E_coul   =     14881.9400 E_long   =    -19675.6748 Press    =       496.9570 
Volume   =     10996.2184 
SHAKE stats (type/ave/delta) on step 250000
  2 1.09006 2.35655e-06
  4 0.945045 0
  5 1.00005 1.34582e-05
  6 109.47 0.000907491
---------------- Step   250000 ----- CPU =    723.5363 (sec) ----------------
TotEng   =     -3305.7433 KinEng   =       679.8964 Temp     =       313.8869 
PotEng   =     -3985.6397 E_bond   =         1.1958 E_angle  =         3.9793 
E_dihed  =         0.1838 E_impro  =         0.0000 E_vdwl   =       753.2596 
E_coul   =     14935.8648 E_long   =    -19680.1229 Press    =        79.6088 
Volume   =     10956.8404 
Loop time of 723.536 on 8 procs for 250000 steps with 1090 atoms

Pair  time (%) = 333.493 (46.0921)
Bond  time (%) = 0.927422 (0.128179)
Kspce time (%) = 145.765 (20.1461)
Neigh time (%) = 48.5567 (6.71103)
Comm  time (%) = 70.122 (9.69156)
Outpt time (%) = 0.00287268 (0.000397033)
Other time (%) = 124.67 (17.2306)

FFT time (% of Kspce) = 25.8172 (17.7116)
FFT Gflps 3d (1d only) = 5.31022 34.98

Nlocal:    136.25 ave 146 max 129 min
Histogram: 2 1 0 1 1 1 0 0 0 2
Nghost:    4180.88 ave 4208 max 4142 min
Histogram: 1 1 0 1 0 0 1 0 1 3
Neighs:    49006.2 ave 54119 max 46562 min
Histogram: 3 0 1 1 2 0 0 0 0 1

Total # of neighbors = 392050
Ave neighs/atom = 359.679
Ave special neighs/atom = 2.05872
Neighbor list builds = 20642
Dangerous builds = 3315
reset_timestep 0


variable lambda equal ramp(1.0,0.0)
variable minusl equal 1.0-v_lambda
variable q1 equal  0.145*v_lambda-0.180*(1.0-v_lambda)
variable q2 equal -0.180*(1.0-v_lambda)
variable q3 equal  0.060*(1.0-v_lambda)
variable q4 equal  0.040*v_lambda+0.060*(1.0-v_lambda)
variable q5 equal -0.683*v_lambda
variable q6 equal  0.418*v_lambda

fix fADAPT all adapt 125000     pair lj/cut/coul/long/soft lambda 2*3 7*8 v_minusl     pair lj/cut/coul/long/soft lambda 3 4 v_minusl     pair lj/cut/coul/long/soft lambda 4 6 v_lambda     pair lj/cut/coul/long/soft lambda 5*6 7*8 v_lambda     atom charge 1 v_q1     atom charge 2 v_q2     atom charge 3 v_q3     atom charge 4 v_q4     atom charge 5 v_q5     atom charge 6 v_q6     after yes

variable dlambda equal -0.002
variable minusdl equal 0.002
variable dq1 equal  0.145*v_dlambda+0.180*v_dlambda
variable dq2 equal  0.180*v_dlambda
variable dq3 equal -0.060*v_dlambda
variable dq4 equal  0.040*v_dlambda-0.060*v_dlambda
variable dq5 equal -0.683*v_dlambda
variable dq6 equal  0.418*v_dlambda

compute cFEP all fep ${temp}     pair lj/cut/coul/long/soft lambda 2*3 7*8 v_minusdl     pair lj/cut/coul/long/soft lambda 3 4 v_minusdl     pair lj/cut/coul/long/soft lambda 4 6 v_dlambda     pair lj/cut/coul/long/soft lambda 5*6 7*8 v_dlambda     atom charge 1 v_dq1     atom charge 2 v_dq2     atom charge 3 v_dq3     atom charge 4 v_dq4     atom charge 5 v_dq5     atom charge 6 v_dq6
compute cFEP all fep 300     pair lj/cut/coul/long/soft lambda 2*3 7*8 v_minusdl     pair lj/cut/coul/long/soft lambda 3 4 v_minusdl     pair lj/cut/coul/long/soft lambda 4 6 v_dlambda     pair lj/cut/coul/long/soft lambda 5*6 7*8 v_dlambda     atom charge 1 v_dq1     atom charge 2 v_dq2     atom charge 3 v_dq3     atom charge 4 v_dq4     atom charge 5 v_dq5     atom charge 6 v_dq6

fix fFEP all ave/time 25 4000 125000 c_cFEP[1] c_cFEP[2] file fdti10.lmp

# compute cRDF all rdf 100 1 1
# fix fRDF all ave/time 20 100 ${nsteps} c_cRDF file rdf.lammps mode vector

compute cMSD all msd
fix fMSD all ave/time 1 1 ${ndump} c_cMSD[1] c_cMSD[2] c_cMSD[3] c_cMSD[4] file msd.lammps
fix fMSD all ave/time 1 1 25000 c_cMSD[1] c_cMSD[2] c_cMSD[3] c_cMSD[4] file msd.lammps

dump dCONF all custom ${ndump} dump.lammpstrj id mol type element x y z ix iy iz
dump dCONF all custom 25000 dump.lammpstrj id mol type element x y z ix iy iz
dump_modify dCONF element C C H H O H H O

# restart ${nrestart} restart.*.lmp

run ${nsteps}
run 2500000
PPPM initialization ...
  G vector (1/distance) = 0.267531
  grid = 12 12 12
  stencil order = 5
  estimated absolute RMS force accuracy = 0.0260473
  estimated relative force accuracy = 7.84407e-05
  using double precision FFTs
  3d grid and FFT values/proc = 2197 288
FEP settings ...
  temperature = 300.000000
  tail no
  lj/cut/coul/long/soft lambda 2-3 7-8
  lj/cut/coul/long/soft lambda 3-3 4-4
  lj/cut/coul/long/soft lambda 4-4 6-6
  lj/cut/coul/long/soft lambda 5-6 7-8
  1-1 charge
  2-2 charge
  3-3 charge
  4-4 charge
  5-5 charge
  6-6 charge
SHAKE stats (type/ave/delta) on step 0
  2 1.09006 2.35655e-06
  4 0.945045 0
  5 1.00005 1.34582e-05
  6 109.47 0.000907491
Memory usage per processor = 10.9648 Mbytes
---------------- Step        0 ----- CPU =      0.0000 (sec) ----------------
TotEng   =     -3305.3268 KinEng   =       679.8964 Temp     =       313.8869 
PotEng   =     -3985.2232 E_bond   =         1.1958 E_angle  =         3.9793 
E_dihed  =         0.1838 E_impro  =         0.0000 E_vdwl   =       753.2596 
E_coul   =     14741.2288 E_long   =    -19485.0704 Press    =        79.7685 
Volume   =     10956.8404 
SHAKE stats (type/ave/delta) on step 5000
  2 1.09001 9.26215e-07
  4 0.945007 7.77156e-16
  5 1.00001 5.93334e-06
  6 109.47 0.000702167
---------------- Step     5000 ----- CPU =     13.3639 (sec) ----------------
TotEng   =     -3360.6182 KinEng   =       648.6603 Temp     =       299.4662 
PotEng   =     -4009.2786 E_bond   =         0.1924 E_angle  =         5.8491 
E_dihed  =         0.6426 E_impro  =         0.0000 E_vdwl   =       748.5050 
E_coul   =     14718.4289 E_long   =    -19482.8966 Press    =      -465.1418 
Volume   =     11099.3711 
SHAKE stats (type/ave/delta) on step 10000
  2 1.09011 2.29575e-06
  4 0.945096 1.77636e-15
  5 1.0001 7.80622e-06
  6 109.47 0.000773618
---------------- Step    10000 ----- CPU =     27.3579 (sec) ----------------
TotEng   =     -3431.0196 KinEng   =       625.6953 Temp     =       288.8640 
PotEng   =     -4056.7149 E_bond   =         1.2101 E_angle  =         2.1027 
E_dihed  =         1.7098 E_impro  =         0.0000 E_vdwl   =       788.5581 
E_coul   =     14632.8248 E_long   =    -19483.1204 Press    =       168.5274 
Volume   =     11058.4512 
SHAKE stats (type/ave/delta) on step 15000
  2 1.09001 2.72923e-06
  4 0.945012 0
  5 1.00001 8.49052e-06
  6 109.47 0.000948483
---------------- Step    15000 ----- CPU =     41.2937 (sec) ----------------
TotEng   =     -3376.9586 KinEng   =       643.9316 Temp     =       297.2831 
PotEng   =     -4020.8902 E_bond   =         0.5225 E_angle  =         2.3073 
E_dihed  =         0.6813 E_impro  =         0.0000 E_vdwl   =       742.6999 
E_coul   =     14714.3721 E_long   =    -19481.4734 Press    =      -670.8814 
Volume   =     11030.4532 
SHAKE stats (type/ave/delta) on step 20000
  2 1.08991 1.87615e-06
  4 0.94493 0
  5 0.999923 1.08638e-05
  6 109.47 0.00114021
---------------- Step    20000 ----- CPU =     55.3175 (sec) ----------------
TotEng   =     -3380.4118 KinEng   =       650.9006 Temp     =       300.5004 
PotEng   =     -4031.3124 E_bond   =         0.1001 E_angle  =         4.6998 
E_dihed  =         0.6250 E_impro  =         0.0000 E_vdwl   =       781.2158 
E_coul   =     14665.6767 E_long   =    -19483.6298 Press    =       311.6073 
Volume   =     10835.0495 
SHAKE stats (type/ave/delta) on step 25000
  2 1.09004 2.33008e-06
  4 0.945031 0
  5 1.00003 1.50728e-05
  6 109.47 0.00128282
---------------- Step    25000 ----- CPU =     69.0586 (sec) ----------------
TotEng   =     -3395.9311 KinEng   =       654.9514 Temp     =       302.3706 
PotEng   =     -4050.8824 E_bond   =         0.5515 E_angle  =         2.3113 
E_dihed  =         0.5074 E_impro  =         0.0000 E_vdwl   =       791.5942 
E_coul   =     14636.8961 E_long   =    -19482.7430 Press    =       326.7599 
Volume   =     11046.5996 
SHAKE stats (type/ave/delta) on step 30000
  2 1.08994 9.49526e-07
  4 0.944946 0
  5 0.999942 9.59142e-06
  6 109.47 0.000995351
---------------- Step    30000 ----- CPU =     84.1786 (sec) ----------------
TotEng   =     -3402.1693 KinEng   =       641.3925 Temp     =       296.1109 
PotEng   =     -4043.5619 E_bond   =         0.3080 E_angle  =         5.2981 
E_dihed  =         0.6621 E_impro  =         0.0000 E_vdwl   =       758.3023 
E_coul   =     14676.4135 E_long   =    -19484.5458 Press    =      -567.5811 
Volume   =     11017.0834 
SHAKE stats (type/ave/delta) on step 35000
  2 1.08994 5.93982e-07
  4 0.944949 0
  5 0.999947 4.4447e-06
  6 109.47 0.000361607
---------------- Step    35000 ----- CPU =     99.3186 (sec) ----------------
TotEng   =     -3313.8844 KinEng   =       669.8493 Temp     =       309.2485 
PotEng   =     -3983.7337 E_bond   =         0.0338 E_angle  =         4.6439 
E_dihed  =         0.8077 E_impro  =         0.0000 E_vdwl   =       748.9477 
E_coul   =     14745.9860 E_long   =    -19484.1526 Press    =       220.7469 
Volume   =     10902.4561 
SHAKE stats (type/ave/delta) on step 40000
  2 1.08991 5.10662e-07
  4 0.944921 0
  5 0.999918 4.64155e-06
  6 109.47 0.000366607
---------------- Step    40000 ----- CPU =    113.8563 (sec) ----------------
TotEng   =     -3384.9936 KinEng   =       615.2661 Temp     =       284.0491 
PotEng   =     -4000.2598 E_bond   =         0.8213 E_angle  =         3.0097 
E_dihed  =         0.8231 E_impro  =         0.0000 E_vdwl   =       777.6743 
E_coul   =     14701.1996 E_long   =    -19483.7878 Press    =       322.6843 
Volume   =     10986.5224 
SHAKE stats (type/ave/delta) on step 45000
  2 1.08995 3.88355e-06
  4 0.944953 0
  5 0.999951 5.91744e-06
  6 109.47 0.000452256
---------------- Step    45000 ----- CPU =    127.8464 (sec) ----------------
TotEng   =     -3390.6969 KinEng   =       679.6985 Temp     =       313.7955 
PotEng   =     -4070.3954 E_bond   =         1.4274 E_angle  =         1.5006 
E_dihed  =         1.3413 E_impro  =         0.0000 E_vdwl   =       749.4627 
E_coul   =     14659.8890 E_long   =    -19484.0163 Press    =      -910.1547 
Volume   =     11060.9431 
SHAKE stats (type/ave/delta) on step 50000
  2 1.09004 2.57038e-07
  4 0.945033 0
  5 1.00003 5.36498e-06
  6 109.47 0.000488197
---------------- Step    50000 ----- CPU =    141.6835 (sec) ----------------
TotEng   =     -3394.4964 KinEng   =       658.9805 Temp     =       304.2307 
PotEng   =     -4053.4769 E_bond   =         0.4758 E_angle  =         3.1833 
E_dihed  =         0.0694 E_impro  =         0.0000 E_vdwl   =       737.4718 
E_coul   =     14689.9353 E_long   =    -19484.6125 Press    =      -783.7584 
Volume   =     10899.6885 
SHAKE stats (type/ave/delta) on step 55000
  2 1.09004 2.5167e-06
  4 0.945036 0
  5 1.00004 7.41074e-06
  6 109.47 0.000744036
---------------- Step    55000 ----- CPU =    155.5959 (sec) ----------------
TotEng   =     -3369.0234 KinEng   =       658.6916 Temp     =       304.0973 
PotEng   =     -4027.7150 E_bond   =         0.6272 E_angle  =         2.9137 
E_dihed  =         0.2720 E_impro  =         0.0000 E_vdwl   =       777.9421 
E_coul   =     14673.8077 E_long   =    -19483.2776 Press    =       649.4453 
Volume   =     10762.9829 
SHAKE stats (type/ave/delta) on step 60000
  2 1.09013 1.67902e-07
  4 0.94511 0
  5 1.00012 5.68045e-06
  6 109.47 0.000470919
---------------- Step    60000 ----- CPU =    169.8278 (sec) ----------------
TotEng   =     -3450.8666 KinEng   =       629.4773 Temp     =       290.6100 
PotEng   =     -4080.3439 E_bond   =         0.2915 E_angle  =         1.8366 
E_dihed  =         0.2234 E_impro  =         0.0000 E_vdwl   =       787.3018 
E_coul   =     14618.1213 E_long   =    -19488.1185 Press    =        30.8863 
Volume   =     10848.4259 
SHAKE stats (type/ave/delta) on step 65000
  2 1.09018 3.54279e-07
  4 0.94516 0
  5 1.00017 4.35136e-06
  6 109.47 0.000506074
---------------- Step    65000 ----- CPU =    184.5357 (sec) ----------------
TotEng   =     -3379.1746 KinEng   =       624.6989 Temp     =       288.4039 
PotEng   =     -4003.8735 E_bond   =         0.7997 E_angle  =         2.9407 
E_dihed  =         2.0376 E_impro  =         0.0000 E_vdwl   =       726.3133 
E_coul   =     14750.0337 E_long   =    -19485.9986 Press    =      -788.5661 
Volume   =     10981.2551 
SHAKE stats (type/ave/delta) on step 70000
  2 1.09005 3.88077e-07
  4 0.945046 0
  5 1.00005 6.97757e-06
  6 109.47 0.000635089
---------------- Step    70000 ----- CPU =    198.8360 (sec) ----------------
TotEng   =     -3408.4055 KinEng   =       635.5835 Temp     =       293.4290 
PotEng   =     -4043.9890 E_bond   =         0.4932 E_angle  =         3.0066 
E_dihed  =         0.3946 E_impro  =         0.0000 E_vdwl   =       786.5812 
E_coul   =     14649.0335 E_long   =    -19483.4981 Press    =        63.1430 
Volume   =     11203.7596 
SHAKE stats (type/ave/delta) on step 75000
  2 1.09007 3.71382e-07
  4 0.945057 0
  5 1.00006 3.65967e-06
  6 109.47 0.000374685
---------------- Step    75000 ----- CPU =    213.0604 (sec) ----------------
TotEng   =     -3331.1928 KinEng   =       682.5378 Temp     =       315.1064 
PotEng   =     -4013.7307 E_bond   =         0.1491 E_angle  =         2.8016 
E_dihed  =         0.6558 E_impro  =         0.0000 E_vdwl   =       764.7737 
E_coul   =     14703.0446 E_long   =    -19485.1554 Press    =       221.9112 
Volume   =     10985.7120 
SHAKE stats (type/ave/delta) on step 80000
  2 1.09006 7.57239e-07
  4 0.945048 3.33067e-16
  5 1.00005 4.18204e-06
  6 109.47 0.000403405
---------------- Step    80000 ----- CPU =    227.8445 (sec) ----------------
TotEng   =     -3438.7463 KinEng   =       607.5009 Temp     =       280.4642 
PotEng   =     -4046.2472 E_bond   =         0.4859 E_angle  =         2.0545 
E_dihed  =         0.1534 E_impro  =         0.0000 E_vdwl   =       733.0292 
E_coul   =     14703.0708 E_long   =    -19485.0410 Press    =     -1006.9844 
Volume   =     11117.6586 
SHAKE stats (type/ave/delta) on step 85000
  2 1.09 1.01523e-06
  4 0.944996 0
  5 0.999997 5.5322e-06
  6 109.47 0.000619582
---------------- Step    85000 ----- CPU =    242.4108 (sec) ----------------
TotEng   =     -3396.1495 KinEng   =       610.1685 Temp     =       281.6957 
PotEng   =     -4006.3180 E_bond   =         1.1853 E_angle  =         4.6140 
E_dihed  =         0.7072 E_impro  =         0.0000 E_vdwl   =       785.3252 
E_coul   =     14684.6736 E_long   =    -19482.8233 Press    =       193.4170 
Volume   =     11160.1975 
SHAKE stats (type/ave/delta) on step 90000
  2 1.09007 4.5352e-06
  4 0.945064 0
  5 1.00007 1.18005e-05
  6 109.47 0.00110811
---------------- Step    90000 ----- CPU =    257.3798 (sec) ----------------
TotEng   =     -3410.8867 KinEng   =       607.6632 Temp     =       280.5391 
PotEng   =     -4018.5499 E_bond   =         0.6244 E_angle  =         4.9040 
E_dihed  =         2.2547 E_impro  =         0.0000 E_vdwl   =       727.0364 
E_coul   =     14731.5105 E_long   =    -19484.8798 Press    =      -827.2602 
Volume   =     10901.7280 
SHAKE stats (type/ave/delta) on step 95000
  2 1.08996 1.53951e-07
  4 0.944964 0
  5 0.999963 4.39461e-06
  6 109.47 0.000417754
---------------- Step    95000 ----- CPU =    271.7467 (sec) ----------------
TotEng   =     -3390.2364 KinEng   =       633.5793 Temp     =       292.5037 
PotEng   =     -4023.8157 E_bond   =         0.2477 E_angle  =         3.9541 
E_dihed  =         1.5899 E_impro  =         0.0000 E_vdwl   =       708.4349 
E_coul   =     14747.8553 E_long   =    -19485.8977 Press    =     -1334.9281 
Volume   =     10985.2505 
SHAKE stats (type/ave/delta) on step 100000
  2 1.09006 3.26612e-07
  4 0.945056 0
  5 1.00006 4.39315e-06
  6 109.47 0.000469353
---------------- Step   100000 ----- CPU =    285.8015 (sec) ----------------
TotEng   =     -3350.0429 KinEng   =       670.4566 Temp     =       309.5288 
PotEng   =     -4020.4995 E_bond   =         0.3555 E_angle  =         3.6127 
E_dihed  =         0.3934 E_impro  =         0.0000 E_vdwl   =       738.6023 
E_coul   =     14718.9398 E_long   =    -19482.4032 Press    =      -463.6421 
Volume   =     10978.2104 
SHAKE stats (type/ave/delta) on step 105000
  2 1.08998 5.29451e-06
  4 0.944976 0
  5 0.999985 1.74531e-05
  6 109.47 0.00112332
---------------- Step   105000 ----- CPU =    299.9370 (sec) ----------------
TotEng   =     -3363.4222 KinEng   =       645.0252 Temp     =       297.7880 
PotEng   =     -4008.4474 E_bond   =         0.2721 E_angle  =         3.0016 
E_dihed  =         0.7732 E_impro  =         0.0000 E_vdwl   =       750.9281 
E_coul   =     14722.0675 E_long   =    -19485.4900 Press    =       311.6536 
Volume   =     10748.0487 
SHAKE stats (type/ave/delta) on step 110000
  2 1.08992 4.62618e-06
  4 0.944927 0
  5 0.999923 1.00642e-05
  6 109.47 0.00100389
---------------- Step   110000 ----- CPU =    313.9310 (sec) ----------------
TotEng   =     -3434.4898 KinEng   =       625.1997 Temp     =       288.6351 
PotEng   =     -4059.6895 E_bond   =         0.2163 E_angle  =         5.2037 
E_dihed  =         0.2648 E_impro  =         0.0000 E_vdwl   =       801.5239 
E_coul   =     14618.0145 E_long   =    -19484.9126 Press    =       456.6556 
Volume   =     10792.6301 
SHAKE stats (type/ave/delta) on step 115000
  2 1.09004 5.85024e-06
  4 0.945035 0
  5 1.00004 1.15058e-05
  6 109.47 0.00122733
---------------- Step   115000 ----- CPU =    328.3137 (sec) ----------------
TotEng   =     -3374.5682 KinEng   =       641.6414 Temp     =       296.2258 
PotEng   =     -4016.2096 E_bond   =         0.2873 E_angle  =         3.7016 
E_dihed  =         0.7805 E_impro  =         0.0000 E_vdwl   =       764.2110 
E_coul   =     14695.7949 E_long   =    -19480.9849 Press    =      -500.4533 
Volume   =     11213.4975 
SHAKE stats (type/ave/delta) on step 120000
  2 1.08989 1.39174e-06
  4 0.944904 0
  5 0.999899 5.08237e-06
  6 109.47 0.000481892
---------------- Step   120000 ----- CPU =    343.4174 (sec) ----------------
TotEng   =     -3396.7192 KinEng   =       672.3825 Temp     =       310.4180 
PotEng   =     -4069.1018 E_bond   =         0.9659 E_angle  =         3.0068 
E_dihed  =         0.3101 E_impro  =         0.0000 E_vdwl   =       836.5117 
E_coul   =     14574.1627 E_long   =    -19484.0591 Press    =      1161.7684 
Volume   =     10785.0315 
SHAKE stats (type/ave/delta) on step 125000
  2 1.09007 2.70219e-07
  4 0.945061 0
  5 1.00007 4.27696e-06
  6 109.47 0.000416911
---------------- Step   125000 ----- CPU =    358.4318 (sec) ----------------
TotEng   =     -3406.6353 KinEng   =       606.0189 Temp     =       279.7800 
PotEng   =     -4012.6541 E_bond   =         0.2349 E_angle  =         3.5898 
E_dihed  =         0.1624 E_impro  =         0.0000 E_vdwl   =       737.8197 
E_coul   =     14729.0563 E_long   =    -19483.5172 Press    =      -268.9620 
Volume   =     10890.7011 
SHAKE stats (type/ave/delta) on step 130000
  2 1.08994 9.25401e-07
  4 0.944948 3.10862e-15
  5 0.999946 5.47575e-06
  6 109.47 0.000470104
---------------- Step   130000 ----- CPU =    371.7618 (sec) ----------------
TotEng   =     -3367.5254 KinEng   =       649.7216 Temp     =       299.9561 
PotEng   =     -4017.2470 E_bond   =         0.0847 E_angle  =         3.4737 
E_dihed  =         2.8094 E_impro  =         0.0000 E_vdwl   =       796.7855 
E_coul   =     14663.9447 E_long   =    -19484.3449 Press    =       850.9420 
Volume   =     10808.3536 
SHAKE stats (type/ave/delta) on step 135000
  2 1.0899 8.64758e-07
  4 0.944909 0
  5 0.999905 5.53075e-06
  6 109.47 0.000500285
---------------- Step   135000 ----- CPU =    384.3632 (sec) ----------------
TotEng   =     -3409.7152 KinEng   =       667.9325 Temp     =       308.3635 
PotEng   =     -4077.6477 E_bond   =         0.0544 E_angle  =         4.2674 
E_dihed  =         1.4680 E_impro  =         0.0000 E_vdwl   =       779.1829 
E_coul   =     14624.3406 E_long   =    -19486.9608 Press    =       202.6966 
Volume   =     10711.5792 
SHAKE stats (type/ave/delta) on step 140000
  2 1.09001 1.39961e-06
  4 0.945007 0
  5 1.00001 6.15759e-06
  6 109.47 0.00040659
---------------- Step   140000 ----- CPU =    397.7454 (sec) ----------------
TotEng   =     -3353.5961 KinEng   =       661.8126 Temp     =       305.5382 
PotEng   =     -4015.4087 E_bond   =         0.0461 E_angle  =         3.7290 
E_dihed  =         0.4476 E_impro  =         0.0000 E_vdwl   =       751.0009 
E_coul   =     14713.9881 E_long   =    -19484.6203 Press    =        92.6676 
Volume   =     10745.7782 
SHAKE stats (type/ave/delta) on step 145000
  2 1.09006 2.88246e-07
  4 0.945052 0
  5 1.00006 6.01657e-06
  6 109.47 0.000483126
---------------- Step   145000 ----- CPU =    410.7243 (sec) ----------------
TotEng   =     -3326.8202 KinEng   =       643.3065 Temp     =       296.9945 
PotEng   =     -3970.1267 E_bond   =         0.1237 E_angle  =         2.7447 
E_dihed  =         1.0002 E_impro  =         0.0000 E_vdwl   =       788.9169 
E_coul   =     14720.5031 E_long   =    -19483.4153 Press    =       720.1740 
Volume   =     10939.7116 
SHAKE stats (type/ave/delta) on step 150000
  2 1.08998 8.5818e-07
  4 0.944981 0
  5 0.999981 9.61111e-06
  6 109.47 0.000733513
---------------- Step   150000 ----- CPU =    423.4784 (sec) ----------------
TotEng   =     -3378.1186 KinEng   =       663.4840 Temp     =       306.3098 
PotEng   =     -4041.6027 E_bond   =         0.1407 E_angle  =         2.4597 
E_dihed  =         0.9293 E_impro  =         0.0000 E_vdwl   =       772.7966 
E_coul   =     14666.2105 E_long   =    -19484.1395 Press    =       -41.2250 
Volume   =     10952.9179 
SHAKE stats (type/ave/delta) on step 155000
  2 1.09003 1.98159e-07
  4 0.94503 0
  5 1.00003 3.80328e-06
  6 109.47 0.000337389
---------------- Step   155000 ----- CPU =    437.3553 (sec) ----------------
TotEng   =     -3405.3455 KinEng   =       647.7534 Temp     =       299.0475 
PotEng   =     -4053.0989 E_bond   =         0.5999 E_angle  =         4.4088 
E_dihed  =         0.3409 E_impro  =         0.0000 E_vdwl   =       793.2955 
E_coul   =     14632.7189 E_long   =    -19484.4628 Press    =      -171.1763 
Volume   =     11076.2388 
SHAKE stats (type/ave/delta) on step 160000
  2 1.08989 6.12817e-07
  4 0.944905 0
  5 0.999901 4.24382e-06
  6 109.47 0.000439202
---------------- Step   160000 ----- CPU =    452.0074 (sec) ----------------
TotEng   =     -3339.6361 KinEng   =       634.8457 Temp     =       293.0884 
PotEng   =     -3974.4818 E_bond   =         1.4817 E_angle  =         4.0681 
E_dihed  =         1.1503 E_impro  =         0.0000 E_vdwl   =       749.5095 
E_coul   =     14752.8259 E_long   =    -19483.5174 Press    =      -537.5549 
Volume   =     11216.6460 
SHAKE stats (type/ave/delta) on step 165000
  2 1.09014 1.79939e-07
  4 0.945119 0
  5 1.00013 4.98193e-06
  6 109.47 0.000334751
---------------- Step   165000 ----- CPU =    466.5010 (sec) ----------------
TotEng   =     -3359.2634 KinEng   =       653.8048 Temp     =       301.8412 
PotEng   =     -4013.0682 E_bond   =         0.0953 E_angle  =         5.6251 
E_dihed  =         0.5379 E_impro  =         0.0000 E_vdwl   =       743.4039 
E_coul   =     14722.4421 E_long   =    -19485.1725 Press    =      -352.0398 
Volume   =     10854.3767 
SHAKE stats (type/ave/delta) on step 170000
  2 1.09006 1.47661e-07
  4 0.945049 0
  5 1.00005 4.45575e-06
  6 109.47 0.000359111
---------------- Step   170000 ----- CPU =    481.0445 (sec) ----------------
TotEng   =     -3408.6504 KinEng   =       642.6336 Temp     =       296.6838 
PotEng   =     -4051.2841 E_bond   =         1.4703 E_angle  =         3.7105 
E_dihed  =         0.0733 E_impro  =         0.0000 E_vdwl   =       770.2870 
E_coul   =     14658.2208 E_long   =    -19485.0458 Press    =      -309.2098 
Volume   =     10956.3520 
SHAKE stats (type/ave/delta) on step 175000
  2 1.08999 1.18756e-06
  4 0.944996 0
  5 0.999996 3.31753e-06
  6 109.47 0.000374294
---------------- Step   175000 ----- CPU =    495.4465 (sec) ----------------
TotEng   =     -3385.0502 KinEng   =       642.8715 Temp     =       296.7937 
PotEng   =     -4027.9217 E_bond   =         0.3929 E_angle  =         3.6079 
E_dihed  =         0.6800 E_impro  =         0.0000 E_vdwl   =       779.2316 
E_coul   =     14672.6557 E_long   =    -19484.4899 Press    =       295.3632 
Volume   =     10919.2657 
SHAKE stats (type/ave/delta) on step 180000
  2 1.09004 1.31188e-06
  4 0.945031 0
  5 1.00003 6.10883e-06
  6 109.47 0.000459759
---------------- Step   180000 ----- CPU =    510.1943 (sec) ----------------
TotEng   =     -3369.0513 KinEng   =       634.6610 Temp     =       293.0032 
PotEng   =     -4003.7123 E_bond   =         0.2368 E_angle  =         3.1992 
E_dihed  =         1.7545 E_impro  =         0.0000 E_vdwl   =       713.7463 
E_coul   =     14760.3225 E_long   =    -19482.9717 Press    =      -700.0807 
Volume   =     10898.0529 
SHAKE stats (type/ave/delta) on step 185000
  2 1.09001 6.19115e-07
  4 0.945004 0
  5 1.00001 5.81724e-06
  6 109.47 0.000467675
---------------- Step   185000 ----- CPU =    524.5854 (sec) ----------------
TotEng   =     -3296.4398 KinEng   =       648.5181 Temp     =       299.4005 
PotEng   =     -3944.9580 E_bond   =         0.1227 E_angle  =         2.8059 
E_dihed  =         0.2346 E_impro  =         0.0000 E_vdwl   =       747.7229 
E_coul   =     14786.3183 E_long   =    -19482.1623 Press    =       421.3436 
Volume   =     10951.1250 
SHAKE stats (type/ave/delta) on step 190000
  2 1.09004 2.91474e-06
  4 0.945032 0
  5 1.00003 1.29694e-05
  6 109.47 0.000863038
---------------- Step   190000 ----- CPU =    539.5592 (sec) ----------------
TotEng   =     -3429.1044 KinEng   =       619.5952 Temp     =       286.0477 
PotEng   =     -4048.6996 E_bond   =         0.0577 E_angle  =         4.9774 
E_dihed  =         0.3996 E_impro  =         0.0000 E_vdwl   =       782.1174 
E_coul   =     14648.4765 E_long   =    -19484.7281 Press    =       -47.3697 
Volume   =     10932.7671 
SHAKE stats (type/ave/delta) on step 195000
  2 1.0899 1.33033e-06
  4 0.944911 0
  5 0.999906 1.15645e-05
  6 109.47 0.000905264
---------------- Step   195000 ----- CPU =    553.3227 (sec) ----------------
TotEng   =     -3374.6616 KinEng   =       655.8522 Temp     =       302.7865 
PotEng   =     -4030.5139 E_bond   =         0.0349 E_angle  =         9.7734 
E_dihed  =         0.3795 E_impro  =         0.0000 E_vdwl   =       751.0596 
E_coul   =     14693.8438 E_long   =    -19485.6050 Press    =      -628.7432 
Volume   =     11070.3975 
SHAKE stats (type/ave/delta) on step 200000
  2 1.08995 2.75237e-06
  4 0.944956 0
  5 0.999951 1.38933e-05
  6 109.47 0.000994438
---------------- Step   200000 ----- CPU =    567.8679 (sec) ----------------
TotEng   =     -3405.7971 KinEng   =       645.7225 Temp     =       298.1099 
PotEng   =     -4051.5196 E_bond   =         0.5741 E_angle  =         3.2351 
E_dihed  =         0.3992 E_impro  =         0.0000 E_vdwl   =       805.2179 
E_coul   =     14624.5001 E_long   =    -19485.4460 Press    =       297.5016 
Volume   =     11057.5564 
SHAKE stats (type/ave/delta) on step 205000
  2 1.08993 1.12709e-07
  4 0.94494 0
  5 0.999938 4.0259e-06
  6 109.47 0.000368156
---------------- Step   205000 ----- CPU =    582.7045 (sec) ----------------
TotEng   =     -3280.8183 KinEng   =       648.1971 Temp     =       299.2523 
PotEng   =     -3929.0154 E_bond   =         0.7538 E_angle  =         4.4211 
E_dihed  =         0.4269 E_impro  =         0.0000 E_vdwl   =       740.9574 
E_coul   =     14805.4822 E_long   =    -19481.0568 Press    =       480.1697 
Volume   =     11055.4267 
SHAKE stats (type/ave/delta) on step 210000
  2 1.09004 5.31392e-07
  4 0.945037 0
  5 1.00004 4.56412e-06
  6 109.47 0.0005335
---------------- Step   210000 ----- CPU =    596.7875 (sec) ----------------
TotEng   =     -3400.6055 KinEng   =       638.2696 Temp     =       294.6691 
PotEng   =     -4038.8751 E_bond   =         1.1783 E_angle  =         1.4594 
E_dihed  =         1.8409 E_impro  =         0.0000 E_vdwl   =       797.5775 
E_coul   =     14642.9234 E_long   =    -19483.8546 Press    =       468.8418 
Volume   =     10838.9541 
SHAKE stats (type/ave/delta) on step 215000
  2 1.08984 1.00159e-06
  4 0.944857 0
  5 0.99985 5.29152e-06
  6 109.47 0.000566419
---------------- Step   215000 ----- CPU =    611.6482 (sec) ----------------
TotEng   =     -3378.0765 KinEng   =       637.6237 Temp     =       294.3709 
PotEng   =     -4015.7001 E_bond   =         0.0517 E_angle  =         4.1444 
E_dihed  =         0.1294 E_impro  =         0.0000 E_vdwl   =       758.5335 
E_coul   =     14703.6819 E_long   =    -19482.2410 Press    =      -161.3024 
Volume   =     10968.4995 
SHAKE stats (type/ave/delta) on step 220000
  2 1.08992 7.81216e-08
  4 0.944927 0
  5 0.999923 3.24803e-06
  6 109.47 0.000360559
---------------- Step   220000 ----- CPU =    625.9116 (sec) ----------------
TotEng   =     -3399.1039 KinEng   =       666.5028 Temp     =       307.7035 
PotEng   =     -4065.6067 E_bond   =         0.1335 E_angle  =         6.9431 
E_dihed  =         0.1560 E_impro  =         0.0000 E_vdwl   =       789.1213 
E_coul   =     14621.5912 E_long   =    -19483.5517 Press    =        22.4809 
Volume   =     11037.7822 
SHAKE stats (type/ave/delta) on step 225000
  2 1.08999 1.6952e-06
  4 0.944989 0
  5 0.999989 4.44775e-06
  6 109.47 0.000406294
---------------- Step   225000 ----- CPU =    640.2296 (sec) ----------------
TotEng   =     -3341.3917 KinEng   =       670.5141 Temp     =       309.5554 
PotEng   =     -4011.9058 E_bond   =         1.6742 E_angle  =         3.9613 
E_dihed  =         2.2132 E_impro  =         0.0000 E_vdwl   =       777.0399 
E_coul   =     14688.3955 E_long   =    -19485.1900 Press    =       624.7682 
Volume   =     10868.4875 
SHAKE stats (type/ave/delta) on step 230000
  2 1.08999 3.72463e-06
  4 0.944988 0
  5 0.999988 7.95736e-06
  6 109.47 0.000869249
---------------- Step   230000 ----- CPU =    655.4136 (sec) ----------------
TotEng   =     -3432.0186 KinEng   =       638.7672 Temp     =       294.8989 
PotEng   =     -4070.7858 E_bond   =         1.4229 E_angle  =         6.3741 
E_dihed  =         0.1650 E_impro  =         0.0000 E_vdwl   =       794.3245 
E_coul   =     14612.1671 E_long   =    -19485.2393 Press    =       387.6376 
Volume   =     10708.6331 
SHAKE stats (type/ave/delta) on step 235000
  2 1.09016 7.54249e-07
  4 0.94514 0
  5 1.00015 4.72362e-06
  6 109.47 0.000426816
---------------- Step   235000 ----- CPU =    669.5401 (sec) ----------------
TotEng   =     -3441.1838 KinEng   =       652.4793 Temp     =       301.2293 
PotEng   =     -4093.6632 E_bond   =         0.1026 E_angle  =         4.2012 
E_dihed  =         0.1790 E_impro  =         0.0000 E_vdwl   =       807.6396 
E_coul   =     14578.6876 E_long   =    -19484.4732 Press    =       461.1305 
Volume   =     10812.8685 
SHAKE stats (type/ave/delta) on step 240000
  2 1.09004 2.02547e-06
  4 0.945037 0
  5 1.00004 8.04378e-06
  6 109.47 0.00073266
---------------- Step   240000 ----- CPU =    683.7886 (sec) ----------------
TotEng   =     -3421.0224 KinEng   =       640.1222 Temp     =       295.5244 
PotEng   =     -4061.1446 E_bond   =         0.1582 E_angle  =         2.3649 
E_dihed  =         0.7655 E_impro  =         0.0000 E_vdwl   =       806.5143 
E_coul   =     14614.0034 E_long   =    -19484.9509 Press    =       590.8800 
Volume   =     10833.5328 
SHAKE stats (type/ave/delta) on step 245000
  2 1.08994 1.48726e-06
  4 0.944944 0
  5 0.999941 4.76536e-06
  6 109.47 0.000493858
---------------- Step   245000 ----- CPU =    698.2596 (sec) ----------------
TotEng   =     -3386.0818 KinEng   =       677.6089 Temp     =       312.8309 
PotEng   =     -4063.6907 E_bond   =         0.1738 E_angle  =         3.6166 
E_dihed  =         1.1707 E_impro  =         0.0000 E_vdwl   =       815.7872 
E_coul   =     14601.8397 E_long   =    -19486.2787 Press    =      1128.6671 
Volume   =     10732.8215 
SHAKE stats (type/ave/delta) on step 250000
  2 1.09003 2.5405e-06
  4 0.945023 1.11022e-15
  5 1.00003 8.11223e-06
  6 109.47 0.000698864
---------------- Step   250000 ----- CPU =    712.4809 (sec) ----------------
TotEng   =     -3377.0770 KinEng   =       640.8905 Temp     =       295.8791 
PotEng   =     -4017.9675 E_bond   =         0.1110 E_angle  =         3.1714 
E_dihed  =         0.3890 E_impro  =         0.0000 E_vdwl   =       759.3103 
E_coul   =     14702.6971 E_long   =    -19483.6463 Press    =      -607.0476 
Volume   =     11301.3741 
SHAKE stats (type/ave/delta) on step 255000
  2 1.08991 3.51623e-06
  4 0.944925 0
  5 0.999921 9.92589e-06
  6 109.47 0.000881539
---------------- Step   255000 ----- CPU =    725.6760 (sec) ----------------
TotEng   =     -3375.6821 KinEng   =       642.2871 Temp     =       296.5239 
PotEng   =     -4017.9692 E_bond   =         0.1820 E_angle  =         5.4059 
E_dihed  =         0.8026 E_impro  =         0.0000 E_vdwl   =       725.0826 
E_coul   =     14736.0281 E_long   =    -19485.4703 Press    =      -670.8568 
Volume   =     10933.3875 
SHAKE stats (type/ave/delta) on step 260000
  2 1.09006 9.4479e-07
  4 0.945054 0
  5 1.00006 7.50529e-06
  6 109.47 0.000768714
---------------- Step   260000 ----- CPU =    739.5480 (sec) ----------------
TotEng   =     -3356.6391 KinEng   =       625.3459 Temp     =       288.7026 
PotEng   =     -3981.9850 E_bond   =         0.4342 E_angle  =         2.1976 
E_dihed  =         0.0819 E_impro  =         0.0000 E_vdwl   =       809.2237 
E_coul   =     14689.4289 E_long   =    -19483.3513 Press    =      1211.6052 
Volume   =     10864.3422 
SHAKE stats (type/ave/delta) on step 265000
  2 1.09004 8.70374e-07
  4 0.945039 0
  5 1.00004 5.36178e-06
  6 109.47 0.000437795
---------------- Step   265000 ----- CPU =    753.2775 (sec) ----------------
TotEng   =     -3410.6644 KinEng   =       638.0055 Temp     =       294.5472 
PotEng   =     -4048.6699 E_bond   =         0.1268 E_angle  =         2.7690 
E_dihed  =         1.5577 E_impro  =         0.0000 E_vdwl   =       762.8321 
E_coul   =     14666.6459 E_long   =    -19482.6013 Press    =      -449.1374 
Volume   =     10915.0502 
SHAKE stats (type/ave/delta) on step 270000
  2 1.09005 9.02272e-07
  4 0.94504 0
  5 1.00004 4.39414e-06
  6 109.47 0.000446525
---------------- Step   270000 ----- CPU =    765.9766 (sec) ----------------
TotEng   =     -3364.5652 KinEng   =       649.4263 Temp     =       299.8198 
PotEng   =     -4013.9915 E_bond   =         0.4747 E_angle  =         2.8179 
E_dihed  =         1.0445 E_impro  =         0.0000 E_vdwl   =       812.8776 
E_coul   =     14654.5799 E_long   =    -19485.7860 Press    =       557.5483 
Volume   =     11198.5720 
SHAKE stats (type/ave/delta) on step 275000
  2 1.09008 4.42106e-07
  4 0.945066 5.55112e-16
  5 1.00007 4.95676e-06
  6 109.47 0.000394078
---------------- Step   275000 ----- CPU =    778.9581 (sec) ----------------
TotEng   =     -3348.9933 KinEng   =       615.4268 Temp     =       284.1233 
PotEng   =     -3964.4201 E_bond   =         0.0822 E_angle  =         2.0001 
E_dihed  =         0.9666 E_impro  =         0.0000 E_vdwl   =       732.6583 
E_coul   =     14785.6795 E_long   =    -19485.8068 Press    =      -394.5886 
Volume   =     11048.2250 
SHAKE stats (type/ave/delta) on step 280000
  2 1.09009 1.04149e-06
  4 0.945075 0
  5 1.00008 3.55239e-06
  6 109.47 0.000380692
---------------- Step   280000 ----- CPU =    792.8490 (sec) ----------------
TotEng   =     -3464.5112 KinEng   =       625.0135 Temp     =       288.5492 
PotEng   =     -4089.5247 E_bond   =         0.4006 E_angle  =         3.7314 
E_dihed  =         0.7179 E_impro  =         0.0000 E_vdwl   =       786.4014 
E_coul   =     14605.0909 E_long   =    -19485.8669 Press    =      -160.6624 
Volume   =     10892.6841 
SHAKE stats (type/ave/delta) on step 285000
  2 1.08992 1.02084e-07
  4 0.94493 0
  5 0.999926 3.49062e-06
  6 109.47 0.000422459
---------------- Step   285000 ----- CPU =    806.8966 (sec) ----------------
TotEng   =     -3344.6411 KinEng   =       652.5169 Temp     =       301.2467 
PotEng   =     -3997.1580 E_bond   =         1.1474 E_angle  =         1.7728 
E_dihed  =         0.6950 E_impro  =         0.0000 E_vdwl   =       804.9516 
E_coul   =     14677.1996 E_long   =    -19482.9244 Press    =      1146.3408 
Volume   =     10910.5306 
SHAKE stats (type/ave/delta) on step 290000
  2 1.09004 1.0221e-06
  4 0.945038 0
  5 1.00004 1.26908e-05
  6 109.47 0.00102709
---------------- Step   290000 ----- CPU =    820.8220 (sec) ----------------
TotEng   =     -3466.0156 KinEng   =       634.1642 Temp     =       292.7738 
PotEng   =     -4100.1798 E_bond   =         0.0829 E_angle  =         2.7056 
E_dihed  =         1.1764 E_impro  =         0.0000 E_vdwl   =       753.6571 
E_coul   =     14628.0270 E_long   =    -19485.8288 Press    =      -861.3182 
Volume   =     10922.1526 
SHAKE stats (type/ave/delta) on step 295000
  2 1.09006 1.28346e-06
  4 0.945048 0
  5 1.00005 7.82374e-06
  6 109.47 0.00097007
---------------- Step   295000 ----- CPU =    835.2402 (sec) ----------------
TotEng   =     -3370.2549 KinEng   =       636.9187 Temp     =       294.0454 
PotEng   =     -4007.1736 E_bond   =         0.4280 E_angle  =         3.6848 
E_dihed  =         0.1841 E_impro  =         0.0000 E_vdwl   =       783.8801 
E_coul   =     14687.2147 E_long   =    -19482.5654 Press    =       383.1425 
Volume   =     11044.7065 
SHAKE stats (type/ave/delta) on step 300000
  2 1.08999 6.50009e-07
  4 0.944991 0
  5 0.999991 4.06087e-06
  6 109.47 0.000416631
---------------- Step   300000 ----- CPU =    849.1892 (sec) ----------------
TotEng   =     -3318.1335 KinEng   =       673.4769 Temp     =       310.9232 
PotEng   =     -3991.6104 E_bond   =         2.2690 E_angle  =         3.3171 
E_dihed  =         0.9738 E_impro  =         0.0000 E_vdwl   =       738.7335 
E_coul   =     14746.2197 E_long   =    -19483.1235 Press    =       -72.8120 
Volume   =     11068.6034 
SHAKE stats (type/ave/delta) on step 305000
  2 1.09012 4.48536e-07
  4 0.945107 0
  5 1.00011 6.08729e-06
  6 109.47 0.000473438
---------------- Step   305000 ----- CPU =    863.4705 (sec) ----------------
TotEng   =     -3346.7100 KinEng   =       691.5878 Temp     =       319.2845 
PotEng   =     -4038.2978 E_bond   =         1.6852 E_angle  =         3.6550 
E_dihed  =         0.8771 E_impro  =         0.0000 E_vdwl   =       771.0458 
E_coul   =     14667.7397 E_long   =    -19483.3007 Press    =       219.2367 
Volume   =     10961.8724 
SHAKE stats (type/ave/delta) on step 310000
  2 1.08995 5.03045e-07
  4 0.944955 0
  5 0.999953 8.1546e-06
  6 109.47 0.00070173
---------------- Step   310000 ----- CPU =    878.2198 (sec) ----------------
TotEng   =     -3399.8797 KinEng   =       669.6114 Temp     =       309.1387 
PotEng   =     -4069.4911 E_bond   =         0.1213 E_angle  =         4.1853 
E_dihed  =         0.6740 E_impro  =         0.0000 E_vdwl   =       776.5293 
E_coul   =     14632.8408 E_long   =    -19483.8418 Press    =       150.5473 
Volume   =     10779.0360 
SHAKE stats (type/ave/delta) on step 315000
  2 1.09003 1.83067e-07
  4 0.945022 0
  5 1.00002 3.71479e-06
  6 109.47 0.000371184
---------------- Step   315000 ----- CPU =    892.1527 (sec) ----------------
TotEng   =     -3410.8152 KinEng   =       643.9012 Temp     =       297.2690 
PotEng   =     -4054.7163 E_bond   =         0.3175 E_angle  =         2.5920 
E_dihed  =         1.7152 E_impro  =         0.0000 E_vdwl   =       757.4697 
E_coul   =     14667.9223 E_long   =    -19484.7331 Press    =      -246.5429 
Volume   =     10751.6474 
SHAKE stats (type/ave/delta) on step 320000
  2 1.08985 2.42019e-06
  4 0.944872 0
  5 0.999865 8.80521e-06
  6 109.47 0.000697106
---------------- Step   320000 ----- CPU =    906.3352 (sec) ----------------
TotEng   =     -3372.4170 KinEng   =       655.0410 Temp     =       302.4119 
PotEng   =     -4027.4580 E_bond   =         1.4942 E_angle  =         2.4644 
E_dihed  =         0.2164 E_impro  =         0.0000 E_vdwl   =       791.5938 
E_coul   =     14659.0438 E_long   =    -19482.2706 Press    =       516.0393 
Volume   =     10961.5350 
SHAKE stats (type/ave/delta) on step 325000
  2 1.09004 9.46147e-07
  4 0.945035 0
  5 1.00004 4.32766e-06
  6 109.47 0.000499429
---------------- Step   325000 ----- CPU =    920.1190 (sec) ----------------
TotEng   =     -3324.7944 KinEng   =       653.7062 Temp     =       301.7957 
PotEng   =     -3978.5005 E_bond   =         0.1576 E_angle  =         1.2813 
E_dihed  =         0.0896 E_impro  =         0.0000 E_vdwl   =       785.2205 
E_coul   =     14717.5108 E_long   =    -19482.7603 Press    =       914.6540 
Volume   =     10836.8159 
SHAKE stats (type/ave/delta) on step 330000
  2 1.08988 4.16342e-07
  4 0.944895 5.55112e-16
  5 0.999888 6.09583e-06
  6 109.47 0.00048491
---------------- Step   330000 ----- CPU =    935.1853 (sec) ----------------
TotEng   =     -3349.0745 KinEng   =       635.1164 Temp     =       293.2134 
PotEng   =     -3984.1909 E_bond   =         0.1296 E_angle  =         2.1688 
E_dihed  =         0.2164 E_impro  =         0.0000 E_vdwl   =       734.6396 
E_coul   =     14761.6601 E_long   =    -19483.0055 Press    =        34.9059 
Volume   =     10797.7928 
SHAKE stats (type/ave/delta) on step 335000
  2 1.09004 8.11133e-07
  4 0.945037 0
  5 1.00004 5.3587e-06
  6 109.47 0.00073383
---------------- Step   335000 ----- CPU =    949.4768 (sec) ----------------
TotEng   =     -3352.4394 KinEng   =       643.5230 Temp     =       297.0945 
PotEng   =     -3995.9624 E_bond   =         0.3472 E_angle  =         1.8987 
E_dihed  =         0.3955 E_impro  =         0.0000 E_vdwl   =       753.7357 
E_coul   =     14731.3041 E_long   =    -19483.6436 Press    =       329.6307 
Volume   =     10792.0540 
SHAKE stats (type/ave/delta) on step 340000
  2 1.09009 2.01408e-06
  4 0.945073 0
  5 1.00008 1.41863e-05
  6 109.47 0.00102522
---------------- Step   340000 ----- CPU =    964.2183 (sec) ----------------
TotEng   =     -3332.2397 KinEng   =       668.8527 Temp     =       308.7884 
PotEng   =     -4001.0924 E_bond   =         4.0719 E_angle  =         1.9399 
E_dihed  =         0.2906 E_impro  =         0.0000 E_vdwl   =       757.2717 
E_coul   =     14719.9065 E_long   =    -19484.5729 Press    =       447.7590 
Volume   =     10735.5664 
SHAKE stats (type/ave/delta) on step 345000
  2 1.09003 1.68486e-06
  4 0.945023 0
  5 1.00003 8.74609e-06
  6 109.47 0.000661438
---------------- Step   345000 ----- CPU =    978.3903 (sec) ----------------
TotEng   =     -3352.0180 KinEng   =       661.8781 Temp     =       305.5684 
PotEng   =     -4013.8962 E_bond   =         0.8034 E_angle  =         3.0076 
E_dihed  =         0.8175 E_impro  =         0.0000 E_vdwl   =       719.4202 
E_coul   =     14744.2260 E_long   =    -19482.1709 Press    =      -990.2854 
Volume   =     10952.7576 
SHAKE stats (type/ave/delta) on step 350000
  2 1.09004 6.84276e-07
  4 0.94503 0
  5 1.00003 5.77949e-06
  6 109.47 0.000535889
---------------- Step   350000 ----- CPU =    992.3639 (sec) ----------------
TotEng   =     -3372.6405 KinEng   =       629.4666 Temp     =       290.6051 
PotEng   =     -4002.1071 E_bond   =         0.1932 E_angle  =         1.2911 
E_dihed  =         1.3071 E_impro  =         0.0000 E_vdwl   =       763.6939 
E_coul   =     14716.8472 E_long   =    -19485.4396 Press    =      -417.8682 
Volume   =     11191.6797 
SHAKE stats (type/ave/delta) on step 355000
  2 1.09004 5.41237e-07
  4 0.945037 0
  5 1.00004 9.92013e-06
  6 109.47 0.000596663
---------------- Step   355000 ----- CPU =   1006.7947 (sec) ----------------
TotEng   =     -3348.3488 KinEng   =       654.8989 Temp     =       302.3464 
PotEng   =     -4003.2478 E_bond   =         0.4435 E_angle  =         4.5896 
E_dihed  =         0.1678 E_impro  =         0.0000 E_vdwl   =       732.7972 
E_coul   =     14744.0575 E_long   =    -19485.3033 Press    =      -449.8944 
Volume   =     10860.8275 
SHAKE stats (type/ave/delta) on step 360000
  2 1.09019 4.80752e-06
  4 0.945168 0
  5 1.00018 1.44975e-05
  6 109.47 0.00127056
---------------- Step   360000 ----- CPU =   1021.1707 (sec) ----------------
TotEng   =     -3399.7844 KinEng   =       636.1396 Temp     =       293.6858 
PotEng   =     -4035.9240 E_bond   =         1.4538 E_angle  =         2.3249 
E_dihed  =         0.0347 E_impro  =         0.0000 E_vdwl   =       784.8500 
E_coul   =     14659.6688 E_long   =    -19484.2563 Press    =       164.1507 
Volume   =     11030.6245 
SHAKE stats (type/ave/delta) on step 365000
  2 1.08994 3.20287e-07
  4 0.944949 0
  5 0.999945 4.09302e-06
  6 109.47 0.000452613
---------------- Step   365000 ----- CPU =   1035.1615 (sec) ----------------
TotEng   =     -3314.8883 KinEng   =       647.8439 Temp     =       299.0893 
PotEng   =     -3962.7322 E_bond   =         0.2312 E_angle  =         2.8879 
E_dihed  =         0.1521 E_impro  =         0.0000 E_vdwl   =       745.1520 
E_coul   =     14772.0881 E_long   =    -19483.2436 Press    =       -42.9745 
Volume   =     10970.6264 
SHAKE stats (type/ave/delta) on step 370000
  2 1.09008 9.56136e-07
  4 0.94507 0
  5 1.00007 8.60404e-06
  6 109.47 0.000596849
---------------- Step   370000 ----- CPU =   1049.6745 (sec) ----------------
TotEng   =     -3386.4657 KinEng   =       635.9639 Temp     =       293.6047 
PotEng   =     -4022.4296 E_bond   =         2.5407 E_angle  =         3.0442 
E_dihed  =         0.4724 E_impro  =         0.0000 E_vdwl   =       793.2285 
E_coul   =     14664.2550 E_long   =    -19485.9704 Press    =       286.6711 
Volume   =     10847.3274 
SHAKE stats (type/ave/delta) on step 375000
  2 1.0899 4.84409e-07
  4 0.94491 0
  5 0.999906 3.75894e-06
  6 109.47 0.000364152
---------------- Step   375000 ----- CPU =   1064.4929 (sec) ----------------
TotEng   =     -3373.5505 KinEng   =       651.1688 Temp     =       300.6243 
PotEng   =     -4024.7193 E_bond   =         0.1159 E_angle  =         4.0004 
E_dihed  =         0.0565 E_impro  =         0.0000 E_vdwl   =       795.3001 
E_coul   =     14659.6214 E_long   =    -19483.8135 Press    =       282.5001 
Volume   =     11175.6961 
SHAKE stats (type/ave/delta) on step 380000
  2 1.09005 1.78643e-07
  4 0.945047 0
  5 1.00005 4.07994e-06
  6 109.47 0.000371509
---------------- Step   380000 ----- CPU =   1078.1659 (sec) ----------------
TotEng   =     -3413.5323 KinEng   =       621.3688 Temp     =       286.8665 
PotEng   =     -4034.9010 E_bond   =         0.3030 E_angle  =         4.9082 
E_dihed  =         1.5145 E_impro  =         0.0000 E_vdwl   =       799.3421 
E_coul   =     14641.5325 E_long   =    -19482.5013 Press    =       634.9142 
Volume   =     10954.4538 
SHAKE stats (type/ave/delta) on step 385000
  2 1.09001 9.69944e-07
  4 0.945012 0
  5 1.00001 3.91554e-06
  6 109.47 0.000372294
---------------- Step   385000 ----- CPU =   1091.8815 (sec) ----------------
TotEng   =     -3352.6109 KinEng   =       649.8417 Temp     =       300.0116 
PotEng   =     -4002.4526 E_bond   =         2.8247 E_angle  =         3.3129 
E_dihed  =         0.5029 E_impro  =         0.0000 E_vdwl   =       723.0352 
E_coul   =     14754.1265 E_long   =    -19486.2548 Press    =      -987.5153 
Volume   =     11036.8716 
SHAKE stats (type/ave/delta) on step 390000
  2 1.08991 8.06873e-07
  4 0.944924 0
  5 0.99992 4.98443e-06
  6 109.47 0.000448729
---------------- Step   390000 ----- CPU =   1106.1880 (sec) ----------------
TotEng   =     -3329.3371 KinEng   =       650.2015 Temp     =       300.1777 
PotEng   =     -3979.5386 E_bond   =         1.4449 E_angle  =         2.7704 
E_dihed  =         0.2098 E_impro  =         0.0000 E_vdwl   =       726.6636 
E_coul   =     14769.6381 E_long   =    -19480.2654 Press    =      -756.3178 
Volume   =     11090.1369 
SHAKE stats (type/ave/delta) on step 395000
  2 1.09002 9.68567e-07
  4 0.945018 0
  5 1.00002 4.14354e-06
  6 109.47 0.000434162
---------------- Step   395000 ----- CPU =   1120.2754 (sec) ----------------
TotEng   =     -3421.8525 KinEng   =       642.3045 Temp     =       296.5319 
PotEng   =     -4064.1571 E_bond   =         0.0706 E_angle  =         5.2715 
E_dihed  =         0.4149 E_impro  =         0.0000 E_vdwl   =       859.1085 
E_coul   =     14556.0898 E_long   =    -19485.1124 Press    =      2014.8265 
Volume   =     10656.9963 
[...]
---------------- Step  2335000 ----- CPU =   6573.1680 (sec) ----------------
TotEng   =     -3396.8608 KinEng   =       677.9538 Temp     =       312.9901 
PotEng   =     -4074.8145 E_bond   =         0.6747 E_angle  =         4.6069 
E_dihed  =         1.2345 E_impro  =         0.0000 E_vdwl   =       794.0404 
E_coul   =     14608.4199 E_long   =    -19483.7909 Press    =       400.6108 
Volume   =     10780.7787 
SHAKE stats (type/ave/delta) on step 2340000
  2 1.09 2.56074e-06
  4 0.944999 0
  5 0.999999 1.15006e-05
  6 109.47 0.000589643
---------------- Step  2340000 ----- CPU =   6587.0436 (sec) ----------------
TotEng   =     -3375.4536 KinEng   =       655.1177 Temp     =       302.4474 
PotEng   =     -4030.5713 E_bond   =         0.2196 E_angle  =         5.4959 
E_dihed  =         1.1620 E_impro  =         0.0000 E_vdwl   =       809.5250 
E_coul   =     14636.9911 E_long   =    -19483.9648 Press    =       866.6897 
Volume   =     10982.5707 
SHAKE stats (type/ave/delta) on step 2345000
  2 1.09005 2.0778e-07
  4 0.945043 0
  5 1.00005 3.97597e-06
  6 109.47 0.000401099
---------------- Step  2345000 ----- CPU =   6601.0810 (sec) ----------------
TotEng   =     -3388.6451 KinEng   =       626.2178 Temp     =       289.1052 
PotEng   =     -4014.8629 E_bond   =         1.7682 E_angle  =         4.1338 
E_dihed  =         0.2131 E_impro  =         0.0000 E_vdwl   =       747.9875 
E_coul   =     14717.4625 E_long   =    -19486.4280 Press    =      -272.8172 
Volume   =     10843.5871 
SHAKE stats (type/ave/delta) on step 2350000
  2 1.08987 1.29356e-07
  4 0.944889 0
  5 0.999884 4.35706e-06
  6 109.47 0.000369571
---------------- Step  2350000 ----- CPU =   6614.9410 (sec) ----------------
TotEng   =     -3357.0872 KinEng   =       664.3840 Temp     =       306.7253 
PotEng   =     -4021.4712 E_bond   =         0.1172 E_angle  =         7.1289 
E_dihed  =         0.4794 E_impro  =         0.0000 E_vdwl   =       837.8125 
E_coul   =     14616.6196 E_long   =    -19483.6288 Press    =      1124.3287 
Volume   =     10960.0233 
SHAKE stats (type/ave/delta) on step 2355000
  2 1.09011 8.44968e-07
  4 0.945094 0
  5 1.0001 6.59311e-06
  6 109.47 0.000675798
---------------- Step  2355000 ----- CPU =   6628.6544 (sec) ----------------
TotEng   =     -3397.2612 KinEng   =       625.5696 Temp     =       288.8059 
PotEng   =     -4022.8308 E_bond   =         1.2686 E_angle  =         5.8310 
E_dihed  =         0.9405 E_impro  =         0.0000 E_vdwl   =       815.8952 
E_coul   =     14638.6985 E_long   =    -19485.4645 Press    =      1177.8555 
Volume   =     10837.1494 
SHAKE stats (type/ave/delta) on step 2360000
  2 1.09 1.47949e-06
  4 0.945 0
  5 1 5.04798e-06
  6 109.47 0.000434096
---------------- Step  2360000 ----- CPU =   6641.8435 (sec) ----------------
TotEng   =     -3377.9632 KinEng   =       654.5362 Temp     =       302.1789 
PotEng   =     -4032.4994 E_bond   =         0.0824 E_angle  =         4.0579 
E_dihed  =         0.7372 E_impro  =         0.0000 E_vdwl   =       735.9278 
E_coul   =     14712.0843 E_long   =    -19485.3889 Press    =      -915.6956 
Volume   =     11235.9745 
SHAKE stats (type/ave/delta) on step 2365000
  2 1.09007 4.61567e-06
  4 0.945063 0
  5 1.00007 7.97521e-06
  6 109.47 0.000765358
---------------- Step  2365000 ----- CPU =   6655.7157 (sec) ----------------
TotEng   =     -3392.1284 KinEng   =       653.6489 Temp     =       301.7693 
PotEng   =     -4045.7773 E_bond   =         0.7444 E_angle  =         3.8456 
E_dihed  =         0.2529 E_impro  =         0.0000 E_vdwl   =       748.2740 
E_coul   =     14688.3290 E_long   =    -19487.2233 Press    =      -169.9442 
Volume   =     10915.2699 
SHAKE stats (type/ave/delta) on step 2370000
  2 1.08991 3.02371e-07
  4 0.944921 0
  5 0.999918 4.32321e-06
  6 109.47 0.000387591
---------------- Step  2370000 ----- CPU =   6669.7027 (sec) ----------------
TotEng   =     -3374.0930 KinEng   =       666.8877 Temp     =       307.8812 
PotEng   =     -4040.9807 E_bond   =         1.8512 E_angle  =         1.5212 
E_dihed  =         0.8734 E_impro  =         0.0000 E_vdwl   =       758.9481 
E_coul   =     14679.2071 E_long   =    -19483.3818 Press    =       170.9701 
Volume   =     10885.8150 
SHAKE stats (type/ave/delta) on step 2375000
  2 1.08992 3.25052e-06
  4 0.944935 0
  5 0.999931 9.34454e-06
  6 109.47 0.00074842
---------------- Step  2375000 ----- CPU =   6684.3219 (sec) ----------------
TotEng   =     -3336.4077 KinEng   =       652.4129 Temp     =       301.1986 
PotEng   =     -3988.8206 E_bond   =         0.8996 E_angle  =         3.8667 
E_dihed  =         0.8074 E_impro  =         0.0000 E_vdwl   =       721.8954 
E_coul   =     14767.5360 E_long   =    -19483.8257 Press    =      -976.1436 
Volume   =     11087.8599 
SHAKE stats (type/ave/delta) on step 2380000
  2 1.08997 4.87975e-06
  4 0.944975 0
  5 0.999973 1.28209e-05
  6 109.47 0.00079755
---------------- Step  2380000 ----- CPU =   6698.4491 (sec) ----------------
TotEng   =     -3330.3347 KinEng   =       661.7988 Temp     =       305.5318 
PotEng   =     -3992.1335 E_bond   =         0.2804 E_angle  =         2.8635 
E_dihed  =         0.4149 E_impro  =         0.0000 E_vdwl   =       740.5521 
E_coul   =     14747.4479 E_long   =    -19483.6924 Press    =      -192.5201 
Volume   =     11119.7857 
SHAKE stats (type/ave/delta) on step 2385000
  2 1.08997 1.10185e-06
  4 0.944973 0
  5 0.999973 3.68307e-06
  6 109.47 0.000392739
---------------- Step  2385000 ----- CPU =   6712.6607 (sec) ----------------
TotEng   =     -3373.6301 KinEng   =       663.9680 Temp     =       306.5333 
PotEng   =     -4037.5981 E_bond   =         0.1609 E_angle  =         3.9534 
E_dihed  =         1.1112 E_impro  =         0.0000 E_vdwl   =       757.0697 
E_coul   =     14685.0717 E_long   =    -19484.9649 Press    =      -252.4770 
Volume   =     10975.7914 
SHAKE stats (type/ave/delta) on step 2390000
  2 1.08991 1.42072e-06
  4 0.944922 1.66533e-15
  5 0.999919 7.57366e-06
  6 109.47 0.000811543
---------------- Step  2390000 ----- CPU =   6726.9108 (sec) ----------------
TotEng   =     -3351.1660 KinEng   =       662.4725 Temp     =       305.8428 
PotEng   =     -4013.6385 E_bond   =         0.7346 E_angle  =         4.3482 
E_dihed  =         0.1651 E_impro  =         0.0000 E_vdwl   =       737.2723 
E_coul   =     14730.5021 E_long   =    -19486.6609 Press    =      -688.5448 
Volume   =     11090.9182 
SHAKE stats (type/ave/delta) on step 2395000
  2 1.09001 1.0343e-06
  4 0.945008 0
  5 1.00001 7.86913e-06
  6 109.47 0.000697417
---------------- Step  2395000 ----- CPU =   6739.9696 (sec) ----------------
TotEng   =     -3356.2592 KinEng   =       667.8990 Temp     =       308.3481 
PotEng   =     -4024.1582 E_bond   =         0.6085 E_angle  =         3.0802 
E_dihed  =         0.2092 E_impro  =         0.0000 E_vdwl   =       752.1591 
E_coul   =     14703.5695 E_long   =    -19483.7847 Press    =      -186.8233 
Volume   =     10989.7192 
SHAKE stats (type/ave/delta) on step 2400000
  2 1.09005 1.62324e-06
  4 0.945042 0
  5 1.00005 5.65089e-06
  6 109.47 0.000502417
---------------- Step  2400000 ----- CPU =   6752.3908 (sec) ----------------
TotEng   =     -3432.4182 KinEng   =       626.2688 Temp     =       289.1287 
PotEng   =     -4058.6870 E_bond   =         0.1246 E_angle  =         3.1001 
E_dihed  =         0.6040 E_impro  =         0.0000 E_vdwl   =       769.6031 
E_coul   =     14653.4122 E_long   =    -19485.5310 Press    =      -182.8869 
Volume   =     10956.0723 
SHAKE stats (type/ave/delta) on step 2405000
  2 1.08989 4.6434e-07
  4 0.944907 0
  5 0.999903 4.82071e-06
  6 109.47 0.00043485
---------------- Step  2405000 ----- CPU =   6767.2931 (sec) ----------------
TotEng   =     -3360.9777 KinEng   =       638.1868 Temp     =       294.6309 
PotEng   =     -3999.1644 E_bond   =         0.7105 E_angle  =         3.1564 
E_dihed  =         0.9345 E_impro  =         0.0000 E_vdwl   =       757.0565 
E_coul   =     14724.3552 E_long   =    -19485.3775 Press    =       -93.8229 
Volume   =     10955.4987 
SHAKE stats (type/ave/delta) on step 2410000
  2 1.09004 1.14018e-06
  4 0.945038 0
  5 1.00004 4.99374e-06
  6 109.47 0.000457764
---------------- Step  2410000 ----- CPU =   6781.1725 (sec) ----------------
TotEng   =     -3399.4360 KinEng   =       651.2070 Temp     =       300.6419 
PotEng   =     -4050.6430 E_bond   =         0.2074 E_angle  =         2.1059 
E_dihed  =         0.0693 E_impro  =         0.0000 E_vdwl   =       787.0517 
E_coul   =     14645.5365 E_long   =    -19485.6138 Press    =       301.8002 
Volume   =     10940.8126 
SHAKE stats (type/ave/delta) on step 2415000
  2 1.09005 7.17904e-08
  4 0.945041 0
  5 1.00004 4.28628e-06
  6 109.47 0.000367904
---------------- Step  2415000 ----- CPU =   6795.2597 (sec) ----------------
TotEng   =     -3377.4267 KinEng   =       674.4375 Temp     =       311.3667 
PotEng   =     -4051.8642 E_bond   =         0.1478 E_angle  =         3.3694 
E_dihed  =         1.0557 E_impro  =         0.0000 E_vdwl   =       771.7353 
E_coul   =     14656.8429 E_long   =    -19485.0153 Press    =       -49.2463 
Volume   =     10885.4212 
SHAKE stats (type/ave/delta) on step 2420000
  2 1.08999 9.47071e-07
  4 0.944988 0
  5 0.999988 7.11993e-06
  6 109.47 0.00063149
---------------- Step  2420000 ----- CPU =   6808.7562 (sec) ----------------
TotEng   =     -3308.6188 KinEng   =       674.2812 Temp     =       311.2945 
PotEng   =     -3982.9000 E_bond   =         0.0541 E_angle  =         3.9230 
E_dihed  =         0.3934 E_impro  =         0.0000 E_vdwl   =       750.7027 
E_coul   =     14747.4133 E_long   =    -19485.3866 Press    =       265.3951 
Volume   =     10860.4781 
SHAKE stats (type/ave/delta) on step 2425000
  2 1.09018 1.27383e-06
  4 0.945153 0
  5 1.00016 6.23254e-06
  6 109.47 0.000478453
---------------- Step  2425000 ----- CPU =   6822.9159 (sec) ----------------
TotEng   =     -3342.8144 KinEng   =       695.9698 Temp     =       321.3075 
PotEng   =     -4038.7842 E_bond   =         1.0081 E_angle  =         3.5612 
E_dihed  =         2.2111 E_impro  =         0.0000 E_vdwl   =       790.7838 
E_coul   =     14649.3884 E_long   =    -19485.7368 Press    =       319.0245 
Volume   =     10863.3977 
SHAKE stats (type/ave/delta) on step 2430000
  2 1.09002 4.24156e-06
  4 0.94502 0
  5 1.00001 1.35419e-05
  6 109.47 0.00087999
---------------- Step  2430000 ----- CPU =   6837.2526 (sec) ----------------
TotEng   =     -3271.5352 KinEng   =       687.8983 Temp     =       317.5812 
PotEng   =     -3959.4336 E_bond   =         0.2554 E_angle  =         3.8004 
E_dihed  =         1.7297 E_impro  =         0.0000 E_vdwl   =       702.1294 
E_coul   =     14815.8325 E_long   =    -19483.1810 Press    =      -654.0415 
Volume   =     11044.7087 
SHAKE stats (type/ave/delta) on step 2435000
  2 1.09003 2.35226e-06
  4 0.945029 0
  5 1.00003 1.03821e-05
  6 109.47 0.000654887
---------------- Step  2435000 ----- CPU =   6852.3867 (sec) ----------------
TotEng   =     -3319.0692 KinEng   =       684.1191 Temp     =       315.8364 
PotEng   =     -4003.1883 E_bond   =         0.3122 E_angle  =         1.1072 
E_dihed  =         0.2741 E_impro  =         0.0000 E_vdwl   =       712.7167 
E_coul   =     14766.3844 E_long   =    -19483.9829 Press    =      -747.2784 
Volume   =     11012.6092 
SHAKE stats (type/ave/delta) on step 2440000
  2 1.09006 1.26013e-06
  4 0.945052 0
  5 1.00006 7.80473e-06
  6 109.47 0.000523208
---------------- Step  2440000 ----- CPU =   6867.1745 (sec) ----------------
TotEng   =     -3439.3920 KinEng   =       633.6045 Temp     =       292.5154 
PotEng   =     -4072.9965 E_bond   =         1.0836 E_angle  =         3.5219 
E_dihed  =         0.7509 E_impro  =         0.0000 E_vdwl   =       767.5886 
E_coul   =     14640.5825 E_long   =    -19486.5240 Press    =      -404.1762 
Volume   =     11118.3338 
SHAKE stats (type/ave/delta) on step 2445000
  2 1.09011 1.31854e-06
  4 0.945093 0
  5 1.0001 7.43016e-06
  6 109.47 0.000517745
---------------- Step  2445000 ----- CPU =   6881.7940 (sec) ----------------
TotEng   =     -3402.6872 KinEng   =       655.2381 Temp     =       302.5030 
PotEng   =     -4057.9254 E_bond   =         0.1079 E_angle  =         4.4158 
E_dihed  =         0.4907 E_impro  =         0.0000 E_vdwl   =       848.5288 
E_coul   =     14573.4261 E_long   =    -19484.8946 Press    =      1651.7316 
Volume   =     10827.5640 
SHAKE stats (type/ave/delta) on step 2450000
  2 1.09002 5.42709e-07
  4 0.945016 0
  5 1.00002 5.58547e-06
  6 109.47 0.000427007
---------------- Step  2450000 ----- CPU =   6896.0833 (sec) ----------------
TotEng   =     -3417.3667 KinEng   =       637.9663 Temp     =       294.5291 
PotEng   =     -4055.3330 E_bond   =         0.5090 E_angle  =         2.6608 
E_dihed  =         0.2458 E_impro  =         0.0000 E_vdwl   =       783.9598 
E_coul   =     14642.3675 E_long   =    -19485.0759 Press    =       139.4071 
Volume   =     10964.7504 
SHAKE stats (type/ave/delta) on step 2455000
  2 1.09008 5.84312e-07
  4 0.945065 0
  5 1.00007 5.28965e-06
  6 109.47 0.000450132
---------------- Step  2455000 ----- CPU =   6910.4055 (sec) ----------------
TotEng   =     -3357.9546 KinEng   =       657.2046 Temp     =       303.4108 
PotEng   =     -4015.1592 E_bond   =         0.6624 E_angle  =         1.2030 
E_dihed  =         1.7192 E_impro  =         0.0000 E_vdwl   =       762.7095 
E_coul   =     14702.6523 E_long   =    -19484.1057 Press    =       -29.3091 
Volume   =     10957.7676 
SHAKE stats (type/ave/delta) on step 2460000
  2 1.09011 3.36004e-06
  4 0.945093 0
  5 1.0001 5.76155e-06
  6 109.47 0.000566275
---------------- Step  2460000 ----- CPU =   6924.4445 (sec) ----------------
TotEng   =     -3391.4126 KinEng   =       670.9189 Temp     =       309.7423 
PotEng   =     -4062.3315 E_bond   =         0.1961 E_angle  =         4.4569 
E_dihed  =         0.5066 E_impro  =         0.0000 E_vdwl   =       783.4624 
E_coul   =     14633.5212 E_long   =    -19484.4746 Press    =       -64.5743 
Volume   =     10990.2473 
SHAKE stats (type/ave/delta) on step 2465000
  2 1.08991 3.69895e-06
  4 0.944923 0
  5 0.999917 1.16504e-05
  6 109.47 0.000777762
---------------- Step  2465000 ----- CPU =   6938.5379 (sec) ----------------
TotEng   =     -3321.4099 KinEng   =       669.1424 Temp     =       308.9221 
PotEng   =     -3990.5523 E_bond   =         0.3940 E_angle  =         8.2260 
E_dihed  =         0.6617 E_impro  =         0.0000 E_vdwl   =       804.8576 
E_coul   =     14679.9100 E_long   =    -19484.6016 Press    =      1433.3502 
Volume   =     10854.9297 
SHAKE stats (type/ave/delta) on step 2470000
  2 1.08993 3.14525e-06
  4 0.944942 0
  5 0.999941 7.13573e-06
  6 109.47 0.000715987
---------------- Step  2470000 ----- CPU =   6952.6859 (sec) ----------------
TotEng   =     -3338.0295 KinEng   =       667.8206 Temp     =       308.3119 
PotEng   =     -4005.8502 E_bond   =         0.7703 E_angle  =         6.7897 
E_dihed  =         1.7159 E_impro  =         0.0000 E_vdwl   =       700.9447 
E_coul   =     14768.2797 E_long   =    -19484.3506 Press    =     -1013.6971 
Volume   =     10951.6931 
SHAKE stats (type/ave/delta) on step 2475000
  2 1.0902 5.94792e-07
  4 0.94517 0
  5 1.00018 3.72476e-06
  6 109.47 0.000405203
---------------- Step  2475000 ----- CPU =   6966.3926 (sec) ----------------
TotEng   =     -3409.1493 KinEng   =       646.7067 Temp     =       298.5643 
PotEng   =     -4055.8560 E_bond   =         0.9410 E_angle  =         7.1705 
E_dihed  =         0.2533 E_impro  =         0.0000 E_vdwl   =       728.7903 
E_coul   =     14692.5707 E_long   =    -19485.5819 Press    =      -786.5496 
Volume   =     11022.9073 
SHAKE stats (type/ave/delta) on step 2480000
  2 1.09011 2.48103e-06
  4 0.945093 0
  5 1.0001 6.77523e-06
  6 109.47 0.000580091
---------------- Step  2480000 ----- CPU =   6980.5942 (sec) ----------------
TotEng   =     -3381.0888 KinEng   =       644.9008 Temp     =       297.7305 
PotEng   =     -4025.9895 E_bond   =         0.0623 E_angle  =         4.7174 
E_dihed  =         0.6535 E_impro  =         0.0000 E_vdwl   =       768.1697 
E_coul   =     14682.5243 E_long   =    -19482.1167 Press    =       -61.1509 
Volume   =     11012.4527 
SHAKE stats (type/ave/delta) on step 2485000
  2 1.09006 1.68128e-06
  4 0.945048 0
  5 1.00005 6.33917e-06
  6 109.47 0.000480234
---------------- Step  2485000 ----- CPU =   6995.1528 (sec) ----------------
TotEng   =     -3408.2929 KinEng   =       664.2654 Temp     =       306.6705 
PotEng   =     -4072.5582 E_bond   =         0.7724 E_angle  =         6.2402 
E_dihed  =         0.4194 E_impro  =         0.0000 E_vdwl   =       780.4031 
E_coul   =     14621.7061 E_long   =    -19482.0993 Press    =       154.6853 
Volume   =     10846.7402 
SHAKE stats (type/ave/delta) on step 2490000
  2 1.0899 4.55445e-07
  4 0.944915 0
  5 0.999911 4.03626e-06
  6 109.47 0.000377377
---------------- Step  2490000 ----- CPU =   7009.9926 (sec) ----------------
TotEng   =     -3419.3882 KinEng   =       640.4458 Temp     =       295.6738 
PotEng   =     -4059.8340 E_bond   =         0.5155 E_angle  =         6.9162 
E_dihed  =         1.2330 E_impro  =         0.0000 E_vdwl   =       795.0256 
E_coul   =     14620.5556 E_long   =    -19484.0799 Press    =       445.9577 
Volume   =     10809.9447 
SHAKE stats (type/ave/delta) on step 2495000
  2 1.09 3.99596e-06
  4 0.944996 0
  5 0.999997 7.13768e-06
  6 109.47 0.000700764
---------------- Step  2495000 ----- CPU =   7024.7775 (sec) ----------------
TotEng   =     -3330.8000 KinEng   =       614.3079 Temp     =       283.6068 
PotEng   =     -3945.1080 E_bond   =         0.4505 E_angle  =         3.7009 
E_dihed  =         0.1048 E_impro  =         0.0000 E_vdwl   =       751.3704 
E_coul   =     14778.1508 E_long   =    -19478.8854 Press    =       211.4458 
Volume   =     11084.4852 
SHAKE stats (type/ave/delta) on step 2500000
  2 1.08999 1.15115e-06
  4 0.944994 0
  5 0.999994 4.88401e-06
  6 109.47 0.00048606
---------------- Step  2500000 ----- CPU =   7039.4319 (sec) ----------------
TotEng   =     -3441.0859 KinEng   =       648.3740 Temp     =       299.3340 
PotEng   =     -4089.4599 E_bond   =         0.6405 E_angle  =         2.7997 
E_dihed  =         0.1978 E_impro  =         0.0000 E_vdwl   =       815.3307 
E_coul   =     14575.6056 E_long   =    -19484.0343 Press    =       797.4914 
Volume   =     10817.6188 
Loop time of 7039.43 on 8 procs for 2500000 steps with 1090 atoms

Pair  time (%) = 3639.69 (51.7043)
Bond  time (%) = 9.28586 (0.131912)
Kspce time (%) = 1304.18 (18.5267)
Neigh time (%) = 487.725 (6.92847)
Comm  time (%) = 701.475 (9.96493)
Outpt time (%) = 0.242025 (0.00343813)
Other time (%) = 896.839 (12.7402)

FFT time (% of Kspce) = 166.046 (12.7318)
FFT Gflps 3d (1d only) = 3.87898 52.6911

Nlocal:    136.25 ave 150 max 122 min
Histogram: 1 0 1 1 1 1 1 1 0 1
Nghost:    4224.38 ave 4293 max 4164 min
Histogram: 2 0 0 3 0 0 0 1 0 2
Neighs:    49615.6 ave 60331 max 41074 min
Histogram: 1 1 1 2 0 0 1 1 0 1

Total # of neighbors = 396925
Ave neighs/atom = 364.151
Ave special neighs/atom = 2.05872
Neighbor list builds = 206258
Dangerous builds = 33102

write_restart restart.*.lmp
PPPM initialization ...
  G vector (1/distance) = 0.26789
  grid = 12 12 12
  stencil order = 5
  estimated absolute RMS force accuracy = 0.0256774
  estimated relative force accuracy = 7.73268e-05
  using double precision FFTs
  3d grid and FFT values/proc = 2197 288
write_data data.*.lmp
PPPM initialization ...
  G vector (1/distance) = 0.26789
  grid = 12 12 12
  stencil order = 5
  estimated absolute RMS force accuracy = 0.0256774
  estimated relative force accuracy = 7.73268e-05
  using double precision FFTs
  3d grid and FFT values/proc = 2197 288
