LAMMPS (11 Nov 2013)
# created by fftool

units real
boundary p p p

atom_style full
bond_style harmonic
angle_style harmonic
special_bonds lj/coul 0.0 0.0 0.5

read_data data.1.lmp
  1 = max bonds/atom
  6 = max angles/atom
  orthogonal box = (-11.1396 -11.1396 -11.1396) to (11.1396 11.1396 11.1396)
  2 by 2 by 2 MPI processor grid
  1085 atoms
  1085 velocities
  724 bonds
  366 angles
  4 = max # of 1-2 neighbors
  3 = max # of 1-3 neighbors
  3 = max # of 1-4 neighbors
  4 = max # of special neighbors
# read_restart restart.*.lmp
# reset_timestep 0

pair_style hybrid lj/cut/coul/long 10.0 10.0 lj/cut/coul/long/soft 10.0 10.0
pair_modify tail no
kspace_style pppm 1.0e-4

pair_coeff    1    1  lj/cut/coul/long    0.0660   3.5000  # C4H C4H
pair_coeff    1    2  lj/cut/coul/long    0.0445   2.9580  # C4H H
pair_coeff    2    2  lj/cut/coul/long    0.0300   2.5000  # H H
pair_coeff    3    3  lj/cut/coul/long    0.0000   1.0000  # Hw Hw
pair_coeff    3    4  lj/cut/coul/long    0.0000   1.0000  # Hw Ow
pair_coeff    4    4  lj/cut/coul/long    0.1554   3.1655  # Ow Ow

pair_coeff    1    3  lj/cut/coul/long/soft    0.0000   1.0000  1.0  # C4H Hw
pair_coeff    1    4  lj/cut/coul/long/soft    0.1013   3.3286  1.0  # C4H Ow
pair_coeff    2    3  lj/cut/coul/long/soft    0.0000   1.0000  1.0  # H Hw
pair_coeff    2    4  lj/cut/coul/long/soft    0.0683   2.8131  1.0  # H Ow

variable nsteps equal 5000000
variable nprint equal ${nsteps}/500
variable nprint equal 5000000/500
variable ndump equal ${nsteps}/100
variable ndump equal 5000000/100
# variable nrestart equal ${nsteps}/10

variable temp equal 300.0
variable press equal 1.0

neighbor 2.0 bin

timestep 2.0

# velocity all create ${temp} 12345

thermo_style multi
thermo ${nprint}
thermo 10000

fix fSHAKE all shake 0.0001 20 ${nprint} b 2 a 2
fix fSHAKE all shake 0.0001 20 10000 b 2 a 2
  0 = # of size 2 clusters
  0 = # of size 3 clusters
  0 = # of size 4 clusters
  360 = # of frozen angles

fix fNPT all npt temp ${temp} ${temp} 100 iso ${press} ${press} 500
fix fNPT all npt temp 300 ${temp} 100 iso ${press} ${press} 500
fix fNPT all npt temp 300 300 100 iso ${press} ${press} 500
fix fNPT all npt temp 300 300 100 iso 1 ${press} 500
fix fNPT all npt temp 300 300 100 iso 1 1 500

run 100000
PPPM initialization ...
  G vector (1/distance) = 0.267272
  grid = 12 12 12
  stencil order = 5
  estimated absolute RMS force accuracy = 0.0263092
  estimated relative force accuracy = 7.92294e-05
  using double precision FFTs
  3d grid and FFT values/proc = 2197 288
SHAKE stats (type/ave/delta) on step 0
  2 0.999993 1.22521e-06
  2 109.47 0.000103145
Memory usage per processor = 6.44577 Mbytes
---------------- Step        0 ----- CPU =      0.0000 (sec) ----------------
TotEng   =     -3354.6209 KinEng   =       670.7375 Temp     =       310.7991 
PotEng   =     -4025.3584 E_bond   =         2.8923 E_angle  =         1.0726 
E_dihed  =         0.0000 E_impro  =         0.0000 E_vdwl   =       861.4219 
E_coul   =     14545.2787 E_long   =    -19436.0239 Press    =      1463.1182 
Volume   =     11058.5592 
SHAKE stats (type/ave/delta) on step 10000
  2 0.999952 1.25695e-05
  2 109.47 0.000902344
---------------- Step    10000 ----- CPU =     26.5381 (sec) ----------------
TotEng   =     -3316.2246 KinEng   =       657.1277 Temp     =       304.4927 
PotEng   =     -3973.3522 E_bond   =         1.0426 E_angle  =         0.7359 
E_dihed  =         0.0000 E_impro  =         0.0000 E_vdwl   =       768.5881 
E_coul   =     14690.1389 E_long   =    -19433.8578 Press    =       107.3809 
Volume   =     11038.7114 
SHAKE stats (type/ave/delta) on step 20000
  2 0.999958 6.80348e-06
  2 109.47 0.00080753
---------------- Step    20000 ----- CPU =     52.1557 (sec) ----------------
TotEng   =     -3416.1441 KinEng   =       640.2414 Temp     =       296.6681 
PotEng   =     -4056.3855 E_bond   =         0.9640 E_angle  =         1.0114 
E_dihed  =         0.0000 E_impro  =         0.0000 E_vdwl   =       809.4091 
E_coul   =     14567.5600 E_long   =    -19435.3300 Press    =       539.9669 
Volume   =     10741.8712 
SHAKE stats (type/ave/delta) on step 30000
  2 0.999887 7.58373e-06
  2 109.47 0.000746316
---------------- Step    30000 ----- CPU =     79.3298 (sec) ----------------
TotEng   =     -3300.3052 KinEng   =       669.5338 Temp     =       310.2413 
PotEng   =     -3969.8390 E_bond   =         2.5694 E_angle  =         1.9251 
E_dihed  =         0.0000 E_impro  =         0.0000 E_vdwl   =       752.5996 
E_coul   =     14708.7289 E_long   =    -19435.6620 Press    =        96.4523 
Volume   =     10933.3961 
SHAKE stats (type/ave/delta) on step 40000
  2 1.0001 5.26967e-06
  2 109.47 0.000459023
---------------- Step    40000 ----- CPU =    106.3883 (sec) ----------------
TotEng   =     -3398.4593 KinEng   =       658.1058 Temp     =       304.9459 
PotEng   =     -4056.5651 E_bond   =         1.7160 E_angle  =         0.7025 
E_dihed  =         0.0000 E_impro  =         0.0000 E_vdwl   =       755.1664 
E_coul   =     14623.3429 E_long   =    -19437.4929 Press    =      -686.2822 
Volume   =     10828.1166 
SHAKE stats (type/ave/delta) on step 50000
  2 0.999896 7.69933e-06
  2 109.47 0.000896496
---------------- Step    50000 ----- CPU =    132.4536 (sec) ----------------
TotEng   =     -3315.0727 KinEng   =       655.1087 Temp     =       303.5572 
PotEng   =     -3970.1814 E_bond   =         6.5972 E_angle  =         0.7128 
E_dihed  =         0.0000 E_impro  =         0.0000 E_vdwl   =       800.3773 
E_coul   =     14658.5840 E_long   =    -19436.4526 Press    =       494.7306 
Volume   =     10985.6988 
SHAKE stats (type/ave/delta) on step 60000
  2 1.00002 6.18436e-06
  2 109.47 0.000444986
---------------- Step    60000 ----- CPU =    158.5139 (sec) ----------------
TotEng   =     -3306.5319 KinEng   =       674.5996 Temp     =       312.5887 
PotEng   =     -3981.1315 E_bond   =         1.9240 E_angle  =         4.2571 
E_dihed  =         0.0000 E_impro  =         0.0000 E_vdwl   =       713.6574 
E_coul   =     14732.1423 E_long   =    -19433.1124 Press    =      -873.2203 
Volume   =     10841.9809 
SHAKE stats (type/ave/delta) on step 70000
  2 1.00011 5.21557e-06
  2 109.47 0.000391828
---------------- Step    70000 ----- CPU =    184.8434 (sec) ----------------
TotEng   =     -3310.1462 KinEng   =       660.1844 Temp     =       305.9091 
PotEng   =     -3970.3306 E_bond   =         1.7258 E_angle  =         1.5494 
E_dihed  =         0.0000 E_impro  =         0.0000 E_vdwl   =       790.3305 
E_coul   =     14671.0287 E_long   =    -19434.9649 Press    =       507.4618 
Volume   =     10945.8984 
SHAKE stats (type/ave/delta) on step 80000
  2 0.999917 5.1538e-06
  2 109.47 0.000440427
---------------- Step    80000 ----- CPU =    210.6063 (sec) ----------------
TotEng   =     -3385.9497 KinEng   =       619.5800 Temp     =       287.0942 
PotEng   =     -4005.5296 E_bond   =         4.7686 E_angle  =         2.9958 
E_dihed  =         0.0000 E_impro  =         0.0000 E_vdwl   =       822.8044 
E_coul   =     14600.5179 E_long   =    -19436.6164 Press    =      1170.3307 
Volume   =     10857.1199 
SHAKE stats (type/ave/delta) on step 90000
  2 1.00019 4.30648e-06
  2 109.47 0.000389732
---------------- Step    90000 ----- CPU =    238.5936 (sec) ----------------
TotEng   =     -3387.3927 KinEng   =       652.6503 Temp     =       302.4180 
PotEng   =     -4040.0431 E_bond   =         1.5728 E_angle  =         4.9333 
E_dihed  =         0.0000 E_impro  =         0.0000 E_vdwl   =       789.9788 
E_coul   =     14599.7608 E_long   =    -19436.2888 Press    =      -329.7563 
Volume   =     11086.5467 
SHAKE stats (type/ave/delta) on step 100000
  2 1 6.12225e-06
  2 109.47 0.000566329
---------------- Step   100000 ----- CPU =    266.8326 (sec) ----------------
TotEng   =     -3318.2616 KinEng   =       645.3885 Temp     =       299.0532 
PotEng   =     -3963.6502 E_bond   =         2.9507 E_angle  =         2.1631 
E_dihed  =         0.0000 E_impro  =         0.0000 E_vdwl   =       742.0218 
E_coul   =     14725.1490 E_long   =    -19435.9347 Press    =      -473.3443 
Volume   =     11097.1772 
Loop time of 266.833 on 8 procs for 100000 steps with 1085 atoms

Pair  time (%) = 132.974 (49.8343)
Bond  time (%) = 0.0686325 (0.0257212)
Kspce time (%) = 48.3888 (18.1345)
Neigh time (%) = 19.1951 (7.1937)
Comm  time (%) = 29.7823 (11.1614)
Outpt time (%) = 0.000527233 (0.000197589)
Other time (%) = 36.4231 (13.6502)

FFT time (% of Kspce) = 6.77918 (14.0098)
FFT Gflps 3d (1d only) = 3.80039 52.2479

Nlocal:    135.625 ave 141 max 132 min
Histogram: 1 2 1 1 0 1 0 0 1 1
Nghost:    4085.25 ave 4107 max 4060 min
Histogram: 1 0 0 0 2 3 0 1 0 1
Neighs:    47916.8 ave 52831 max 43276 min
Histogram: 2 0 1 0 0 0 3 1 0 1

Total # of neighbors = 383334
Ave neighs/atom = 353.303
Ave special neighs/atom = 2.00922
Neighbor list builds = 8223
Dangerous builds = 1215

reset_timestep 0

variable lambda equal ramp(1.0,0.0)
variable lam13 equal v_lambda
variable lam14 equal v_lambda
variable lam23 equal v_lambda
variable lam24 equal v_lambda

fix fADAPT all adapt 125000   pair lj/cut/coul/long/soft lambda 1 3 v_lam13   pair lj/cut/coul/long/soft lambda 1 4 v_lam14   pair lj/cut/coul/long/soft lambda 2 3 v_lam23   pair lj/cut/coul/long/soft lambda 2 4 v_lam24   after yes

variable dlambda equal -0.002
variable dlam13 equal v_dlambda
variable dlam14 equal v_dlambda
variable dlam23 equal v_dlambda
variable dlam24 equal v_dlambda

compute cFEP all fep ${temp}   pair lj/cut/coul/long/soft lambda 1 3 v_dlam13   pair lj/cut/coul/long/soft lambda 1 4 v_dlam14   pair lj/cut/coul/long/soft lambda 2 3 v_dlam23   pair lj/cut/coul/long/soft lambda 2 4 v_dlam24
compute cFEP all fep 300   pair lj/cut/coul/long/soft lambda 1 3 v_dlam13   pair lj/cut/coul/long/soft lambda 1 4 v_dlam14   pair lj/cut/coul/long/soft lambda 2 3 v_dlam23   pair lj/cut/coul/long/soft lambda 2 4 v_dlam24

fix fFEP all ave/time 25 4000 125000 c_cFEP[1] c_cFEP[2] file fdti10.lmp

# compute cRDF all rdf 100 1 1
# fix fRDF all ave/time 20 100 ${nsteps} c_cRDF file rdf.lammps mode vector

compute cMSD all msd
fix fMSD all ave/time 1 1 ${ndump} c_cMSD[1] c_cMSD[2] c_cMSD[3] c_cMSD[4] file msd.lammps
fix fMSD all ave/time 1 1 50000 c_cMSD[1] c_cMSD[2] c_cMSD[3] c_cMSD[4] file msd.lammps

dump dCONF all custom ${ndump} dump.lammpstrj id mol type element x y z ix iy iz
dump dCONF all custom 50000 dump.lammpstrj id mol type element x y z ix iy iz
dump_modify dCONF element C H H O

# restart ${nrestart} restart.*.lmp

run ${nsteps}
run 5000000
PPPM initialization ...
  G vector (1/distance) = 0.267174
  grid = 12 12 12
  stencil order = 5
  estimated absolute RMS force accuracy = 0.026401
  estimated relative force accuracy = 7.95059e-05
  using double precision FFTs
  3d grid and FFT values/proc = 2197 288
FEP settings ...
  temperature = 300.000000
  tail no
  lj/cut/coul/long/soft lambda 1-1 3-3
  lj/cut/coul/long/soft lambda 1-1 4-4
  lj/cut/coul/long/soft lambda 2-2 3-3
  lj/cut/coul/long/soft lambda 2-2 4-4
SHAKE stats (type/ave/delta) on step 0
  2 1 6.12225e-06
  2 109.47 0.000566329
Memory usage per processor = 7.60669 Mbytes
---------------- Step        0 ----- CPU =      0.0000 (sec) ----------------
TotEng   =     -3318.2625 KinEng   =       645.3885 Temp     =       299.0532 
PotEng   =     -3963.6511 E_bond   =         2.9507 E_angle  =         2.1631 
E_dihed  =         0.0000 E_impro  =         0.0000 E_vdwl   =       742.0218 
E_coul   =     14718.0470 E_long   =    -19428.8336 Press    =      -474.0425 
Volume   =     11097.1772 
SHAKE stats (type/ave/delta) on step 10000
  2 1.00008 8.54257e-06
  2 109.47 0.000836698
---------------- Step    10000 ----- CPU =     25.5148 (sec) ----------------
TotEng   =     -3321.7988 KinEng   =       630.8838 Temp     =       292.3321 
PotEng   =     -3952.6825 E_bond   =         1.8024 E_angle  =         2.4038 
E_dihed  =         0.0000 E_impro  =         0.0000 E_vdwl   =       801.8742 
E_coul   =     14670.0276 E_long   =    -19428.7906 Press    =      1303.8734 
Volume   =     10698.4005 
SHAKE stats (type/ave/delta) on step 20000
  2 0.999973 4.28516e-06
  2 109.47 0.000402505
---------------- Step    20000 ----- CPU =     51.5462 (sec) ----------------
TotEng   =     -3319.7387 KinEng   =       652.1857 Temp     =       302.2027 
PotEng   =     -3971.9244 E_bond   =         1.8658 E_angle  =         3.4681 
E_dihed  =         0.0000 E_impro  =         0.0000 E_vdwl   =       719.3294 
E_coul   =     14732.7461 E_long   =    -19429.3339 Press    =      -888.8459 
Volume   =     11003.6966 
SHAKE stats (type/ave/delta) on step 30000
  2 0.999958 1.30852e-05
  2 109.47 0.00111621
---------------- Step    30000 ----- CPU =     78.8473 (sec) ----------------
TotEng   =     -3299.1417 KinEng   =       659.6556 Temp     =       305.6641 
PotEng   =     -3958.7973 E_bond   =         0.8708 E_angle  =         3.2186 
E_dihed  =         0.0000 E_impro  =         0.0000 E_vdwl   =       765.2293 
E_coul   =     14700.5411 E_long   =    -19428.6571 Press    =       194.0558 
Volume   =     10920.3821 
SHAKE stats (type/ave/delta) on step 40000
  2 1.00002 6.76612e-06
  2 109.47 0.000613986
---------------- Step    40000 ----- CPU =    106.9123 (sec) ----------------
TotEng   =     -3396.5577 KinEng   =       630.3068 Temp     =       292.0647 
PotEng   =     -4026.8645 E_bond   =         1.3462 E_angle  =         2.1776 
E_dihed  =         0.0000 E_impro  =         0.0000 E_vdwl   =       739.0338 
E_coul   =     14658.3180 E_long   =    -19427.7401 Press    =     -1001.6681 
Volume   =     11108.7724 
SHAKE stats (type/ave/delta) on step 50000
  2 1.00002 6.0384e-06
  2 109.47 0.00061505
---------------- Step    50000 ----- CPU =    134.6069 (sec) ----------------
TotEng   =     -3318.7344 KinEng   =       677.1894 Temp     =       313.7887 
PotEng   =     -3995.9238 E_bond   =         0.7215 E_angle  =         1.0183 
E_dihed  =         0.0000 E_impro  =         0.0000 E_vdwl   =       818.8380 
E_coul   =     14611.8750 E_long   =    -19428.3767 Press    =      1429.1920 
Volume   =     10845.2465 
SHAKE stats (type/ave/delta) on step 60000
  2 1.00001 4.882e-06
  2 109.47 0.000425563
---------------- Step    60000 ----- CPU =    161.9734 (sec) ----------------
TotEng   =     -3300.4247 KinEng   =       660.8344 Temp     =       306.2103 
PotEng   =     -3961.2592 E_bond   =         3.2626 E_angle  =         1.0802 
E_dihed  =         0.0000 E_impro  =         0.0000 E_vdwl   =       775.1779 
E_coul   =     14687.2278 E_long   =    -19428.0076 Press    =       204.0420 
Volume   =     10965.4132 
SHAKE stats (type/ave/delta) on step 70000
  2 0.999867 7.06776e-06
  2 109.47 0.000620075
---------------- Step    70000 ----- CPU =    189.6545 (sec) ----------------
TotEng   =     -3337.4931 KinEng   =       617.8642 Temp     =       286.2992 
PotEng   =     -3955.3573 E_bond   =         1.5585 E_angle  =         1.4521 
E_dihed  =         0.0000 E_impro  =         0.0000 E_vdwl   =       775.2798 
E_coul   =     14694.0220 E_long   =    -19427.6697 Press    =       216.3390 
Volume   =     11026.3988 
SHAKE stats (type/ave/delta) on step 80000
  2 0.999911 6.7584e-06
  2 109.47 0.000680924
---------------- Step    80000 ----- CPU =    217.2346 (sec) ----------------
TotEng   =     -3393.6466 KinEng   =       627.1818 Temp     =       290.6167 
PotEng   =     -4020.8284 E_bond   =         3.0602 E_angle  =         1.4749 
E_dihed  =         0.0000 E_impro  =         0.0000 E_vdwl   =       715.7424 
E_coul   =     14688.8670 E_long   =    -19429.9730 Press    =     -1308.2752 
Volume   =     10791.1868 
SHAKE stats (type/ave/delta) on step 90000
  2 0.999982 4.20328e-06
  2 109.47 0.000460647
---------------- Step    90000 ----- CPU =    243.9192 (sec) ----------------
TotEng   =     -3323.7881 KinEng   =       656.9672 Temp     =       304.4184 
PotEng   =     -3980.7553 E_bond   =         2.0443 E_angle  =         1.0432 
E_dihed  =         0.0000 E_impro  =         0.0000 E_vdwl   =       739.0402 
E_coul   =     14700.9223 E_long   =    -19423.8053 Press    =      -619.1785 
Volume   =     10956.2974 
SHAKE stats (type/ave/delta) on step 100000
  2 1 4.24101e-06
  2 109.47 0.000348
---------------- Step   100000 ----- CPU =    270.5855 (sec) ----------------
TotEng   =     -3315.1079 KinEng   =       640.6290 Temp     =       296.8477 
PotEng   =     -3955.7369 E_bond   =         2.1261 E_angle  =         2.4590 
E_dihed  =         0.0000 E_impro  =         0.0000 E_vdwl   =       730.6994 
E_coul   =     14740.1839 E_long   =    -19431.2052 Press    =      -750.4691 
Volume   =     10966.8349 
SHAKE stats (type/ave/delta) on step 110000
  2 0.999999 1.53956e-05
  2 109.47 0.00155146
---------------- Step   110000 ----- CPU =    297.7216 (sec) ----------------
TotEng   =     -3377.4099 KinEng   =       638.1949 Temp     =       295.7198 
PotEng   =     -4015.6048 E_bond   =         1.9085 E_angle  =         0.5590 
E_dihed  =         0.0000 E_impro  =         0.0000 E_vdwl   =       746.3679 
E_coul   =     14665.8535 E_long   =    -19430.2939 Press    =      -401.5115 
Volume   =     10849.0198 
SHAKE stats (type/ave/delta) on step 120000
  2 1.0001 3.35862e-06
  2 109.47 0.000391004
---------------- Step   120000 ----- CPU =    325.3542 (sec) ----------------
TotEng   =     -3356.5179 KinEng   =       657.2428 Temp     =       304.5461 
PotEng   =     -4013.7607 E_bond   =         1.1616 E_angle  =         0.6770 
E_dihed  =         0.0000 E_impro  =         0.0000 E_vdwl   =       799.3960 
E_coul   =     14613.5445 E_long   =    -19428.5399 Press    =       746.2462 
Volume   =     10727.5591 
SHAKE stats (type/ave/delta) on step 130000
  2 1.00002 6.35546e-06
  2 109.47 0.000449336
---------------- Step   130000 ----- CPU =    351.8936 (sec) ----------------
TotEng   =     -3315.8330 KinEng   =       657.6725 Temp     =       304.7452 
PotEng   =     -3973.5055 E_bond   =         0.6766 E_angle  =         0.6940 
E_dihed  =         0.0000 E_impro  =         0.0000 E_vdwl   =       742.3214 
E_coul   =     14712.1743 E_long   =    -19429.3718 Press    =      -424.9075 
Volume   =     11090.6850 
SHAKE stats (type/ave/delta) on step 140000
  2 1.00007 5.73304e-06
  2 109.47 0.00048209
---------------- Step   140000 ----- CPU =    377.3863 (sec) ----------------
TotEng   =     -3372.5511 KinEng   =       643.7774 Temp     =       298.3066 
PotEng   =     -4016.3285 E_bond   =         0.8883 E_angle  =         1.5077 
E_dihed  =         0.0000 E_impro  =         0.0000 E_vdwl   =       851.8775 
E_coul   =     14556.9574 E_long   =    -19427.5594 Press    =      1596.1262 
Volume   =     10865.6447 
SHAKE stats (type/ave/delta) on step 150000
  2 1.00001 4.16553e-06
  2 109.47 0.000432284
---------------- Step   150000 ----- CPU =    404.5838 (sec) ----------------
TotEng   =     -3324.4058 KinEng   =       661.4987 Temp     =       306.5181 
PotEng   =     -3985.9045 E_bond   =         1.0106 E_angle  =         3.4082 
E_dihed  =         0.0000 E_impro  =         0.0000 E_vdwl   =       797.9504 
E_coul   =     14640.7575 E_long   =    -19429.0312 Press    =      1283.1860 
Volume   =     10742.5455 
SHAKE stats (type/ave/delta) on step 160000
  2 1.0001 1.02347e-05
  2 109.47 0.000802387
---------------- Step   160000 ----- CPU =    432.1632 (sec) ----------------
TotEng   =     -3456.3219 KinEng   =       587.5593 Temp     =       272.2568 
PotEng   =     -4043.8812 E_bond   =         0.2517 E_angle  =         2.7253 
E_dihed  =         0.0000 E_impro  =         0.0000 E_vdwl   =       781.2948 
E_coul   =     14601.7189 E_long   =    -19429.8718 Press    =       138.9246 
Volume   =     10619.5605 
SHAKE stats (type/ave/delta) on step 170000
  2 1.00004 4.68791e-06
  2 109.47 0.000462403
---------------- Step   170000 ----- CPU =    459.8328 (sec) ----------------
TotEng   =     -3368.4241 KinEng   =       644.2949 Temp     =       298.5464 
PotEng   =     -4012.7190 E_bond   =         2.4386 E_angle  =         3.9247 
E_dihed  =         0.0000 E_impro  =         0.0000 E_vdwl   =       722.2022 
E_coul   =     14688.6624 E_long   =    -19429.9469 Press    =     -1327.3488 
Volume   =     10866.3399 
SHAKE stats (type/ave/delta) on step 180000
  2 0.999953 3.79859e-06
  2 109.47 0.000420245
---------------- Step   180000 ----- CPU =    487.4425 (sec) ----------------
TotEng   =     -3368.3183 KinEng   =       645.0097 Temp     =       298.8776 
PotEng   =     -4013.3280 E_bond   =         1.1797 E_angle  =         2.8368 
E_dihed  =         0.0000 E_impro  =         0.0000 E_vdwl   =       778.8118 
E_coul   =     14630.5779 E_long   =    -19426.7343 Press    =       166.1677 
Volume   =     10876.5216 
SHAKE stats (type/ave/delta) on step 190000
  2 0.999855 3.89702e-06
  2 109.47 0.000378512
---------------- Step   190000 ----- CPU =    514.7714 (sec) ----------------
TotEng   =     -3253.7826 KinEng   =       672.1001 Temp     =       311.4305 
PotEng   =     -3925.8827 E_bond   =         0.6073 E_angle  =         2.3326 
E_dihed  =         0.0000 E_impro  =         0.0000 E_vdwl   =       784.6744 
E_coul   =     14712.7856 E_long   =    -19426.2826 Press    =      1523.0322 
Volume   =     10612.5210 
SHAKE stats (type/ave/delta) on step 200000
  2 0.999928 4.28474e-06
  2 109.47 0.000560902
---------------- Step   200000 ----- CPU =    542.3675 (sec) ----------------
TotEng   =     -3292.8633 KinEng   =       667.8299 Temp     =       309.4518 
PotEng   =     -3960.6932 E_bond   =         2.8485 E_angle  =         1.4169 
E_dihed  =         0.0000 E_impro  =         0.0000 E_vdwl   =       840.1566 
E_coul   =     14622.4490 E_long   =    -19427.5642 Press    =      1169.5661 
Volume   =     11205.6983 
SHAKE stats (type/ave/delta) on step 210000
  2 0.999985 6.79039e-06
  2 109.47 0.0006304
---------------- Step   210000 ----- CPU =    569.8094 (sec) ----------------
TotEng   =     -3323.4434 KinEng   =       649.5994 Temp     =       301.0043 
PotEng   =     -3973.0427 E_bond   =         1.4287 E_angle  =         2.1140 
E_dihed  =         0.0000 E_impro  =         0.0000 E_vdwl   =       770.6385 
E_coul   =     14681.4337 E_long   =    -19428.6576 Press    =       132.6006 
Volume   =     10933.5563 
SHAKE stats (type/ave/delta) on step 220000
  2 1.0001 5.05071e-06
  2 109.47 0.000432319
---------------- Step   220000 ----- CPU =    597.2525 (sec) ----------------
TotEng   =     -3308.2287 KinEng   =       652.1646 Temp     =       302.1930 
PotEng   =     -3960.3933 E_bond   =         1.4778 E_angle  =         1.3662 
E_dihed  =         0.0000 E_impro  =         0.0000 E_vdwl   =       714.9145 
E_coul   =     14751.3257 E_long   =    -19429.4775 Press    =     -1400.7111 
Volume   =     11194.1542 
SHAKE stats (type/ave/delta) on step 230000
  2 1.00002 8.05986e-06
  2 109.47 0.000699638
---------------- Step   230000 ----- CPU =    625.1951 (sec) ----------------
TotEng   =     -3457.6135 KinEng   =       615.5618 Temp     =       285.2324 
PotEng   =     -4073.1753 E_bond   =         2.1286 E_angle  =         0.5773 
E_dihed  =         0.0000 E_impro  =         0.0000 E_vdwl   =       822.6193 
E_coul   =     14529.4599 E_long   =    -19427.9603 Press    =       484.5402 
Volume   =     10863.2913 
SHAKE stats (type/ave/delta) on step 240000
  2 1.00003 1.31765e-05
  2 109.47 0.00100843
---------------- Step   240000 ----- CPU =    652.6403 (sec) ----------------
TotEng   =     -3325.5595 KinEng   =       653.2948 Temp     =       302.7167 
PotEng   =     -3978.8543 E_bond   =         2.5103 E_angle  =         3.7693 
E_dihed  =         0.0000 E_impro  =         0.0000 E_vdwl   =       756.6812 
E_coul   =     14689.1074 E_long   =    -19430.9225 Press    =       -70.5628 
Volume   =     10971.6601 
SHAKE stats (type/ave/delta) on step 250000
  2 1.00003 7.6064e-06
  2 109.47 0.00075771
---------------- Step   250000 ----- CPU =    680.3527 (sec) ----------------
TotEng   =     -3355.8688 KinEng   =       609.7341 Temp     =       282.5320 
PotEng   =     -3965.6029 E_bond   =         1.7126 E_angle  =         2.4109 
E_dihed  =         0.0000 E_impro  =         0.0000 E_vdwl   =       767.8496 
E_coul   =     14691.6650 E_long   =    -19429.2411 Press    =      -118.7129 
Volume   =     11140.7738 
SHAKE stats (type/ave/delta) on step 260000
  2 1 7.39871e-06
  2 109.47 0.000629274
---------------- Step   260000 ----- CPU =    705.9033 (sec) ----------------
TotEng   =     -3295.3404 KinEng   =       688.6535 Temp     =       319.1008 
PotEng   =     -3983.9939 E_bond   =         3.0849 E_angle  =         0.9514 
E_dihed  =         0.0000 E_impro  =         0.0000 E_vdwl   =       754.2523 
E_coul   =     14685.5354 E_long   =    -19427.8178 Press    =      -150.3810 
Volume   =     11023.4271 
SHAKE stats (type/ave/delta) on step 270000
  2 1.00003 6.30403e-06
  2 109.47 0.000476222
---------------- Step   270000 ----- CPU =    731.8662 (sec) ----------------
TotEng   =     -3451.6294 KinEng   =       608.1008 Temp     =       281.7752 
PotEng   =     -4059.7302 E_bond   =         0.1653 E_angle  =         1.0045 
E_dihed  =         0.0000 E_impro  =         0.0000 E_vdwl   =       763.8365 
E_coul   =     14605.6910 E_long   =    -19430.4274 Press    =      -527.2063 
Volume   =     10903.9299 
SHAKE stats (type/ave/delta) on step 280000
  2 1 3.98963e-06
  2 109.47 0.000368595
---------------- Step   280000 ----- CPU =    759.5080 (sec) ----------------
TotEng   =     -3314.9544 KinEng   =       654.8223 Temp     =       303.4245 
PotEng   =     -3969.7767 E_bond   =         1.3392 E_angle  =         1.1726 
E_dihed  =         0.0000 E_impro  =         0.0000 E_vdwl   =       776.6975 
E_coul   =     14678.5350 E_long   =    -19427.5211 Press    =       556.0268 
Volume   =     10778.8671 
SHAKE stats (type/ave/delta) on step 290000
  2 0.999969 9.2506e-06
  2 109.47 0.000946746
---------------- Step   290000 ----- CPU =    786.7000 (sec) ----------------
TotEng   =     -3322.1280 KinEng   =       652.1670 Temp     =       302.1941 
PotEng   =     -3974.2950 E_bond   =         0.6953 E_angle  =         0.8996 
E_dihed  =         0.0000 E_impro  =         0.0000 E_vdwl   =       748.4884 
E_coul   =     14705.3338 E_long   =    -19429.7120 Press    =      -533.0144 
Volume   =     10990.1966 
SHAKE stats (type/ave/delta) on step 300000
  2 1.00003 5.01298e-06
  2 109.47 0.000443862
---------------- Step   300000 ----- CPU =    814.6972 (sec) ----------------
TotEng   =     -3368.6924 KinEng   =       590.5743 Temp     =       273.6539 
PotEng   =     -3959.2667 E_bond   =         0.4152 E_angle  =         1.0654 
E_dihed  =         0.0000 E_impro  =         0.0000 E_vdwl   =       733.5787 
E_coul   =     14734.5817 E_long   =    -19428.9076 Press    =      -676.4414 
Volume   =     10938.9352 
SHAKE stats (type/ave/delta) on step 310000
  2 1.00004 4.30815e-06
  2 109.47 0.00038932
---------------- Step   310000 ----- CPU =    841.8704 (sec) ----------------
TotEng   =     -3399.8835 KinEng   =       658.3503 Temp     =       305.0593 
PotEng   =     -4058.2338 E_bond   =         0.9777 E_angle  =         0.6329 
E_dihed  =         0.0000 E_impro  =         0.0000 E_vdwl   =       745.3186 
E_coul   =     14624.1706 E_long   =    -19429.3336 Press    =      -748.4655 
Volume   =     10859.3465 
SHAKE stats (type/ave/delta) on step 320000
  2 1.00003 4.17402e-06
  2 109.47 0.00036382
---------------- Step   320000 ----- CPU =    871.7488 (sec) ----------------
TotEng   =     -3330.7743 KinEng   =       661.9755 Temp     =       306.7390 
PotEng   =     -3992.7497 E_bond   =         0.1207 E_angle  =         2.5451 
E_dihed  =         0.0000 E_impro  =         0.0000 E_vdwl   =       794.8625 
E_coul   =     14636.9372 E_long   =    -19427.2152 Press    =       308.1260 
Volume   =     11063.6809 
SHAKE stats (type/ave/delta) on step 330000
  2 1.00009 9.45067e-06
  2 109.47 0.000854634
---------------- Step   330000 ----- CPU =    899.2185 (sec) ----------------
TotEng   =     -3379.2146 KinEng   =       618.8882 Temp     =       286.7737 
PotEng   =     -3998.1028 E_bond   =         1.0949 E_angle  =         2.1907 
E_dihed  =         0.0000 E_impro  =         0.0000 E_vdwl   =       833.0086 
E_coul   =     14592.0479 E_long   =    -19426.4449 Press    =       762.4362 
Volume   =     11072.3832 
SHAKE stats (type/ave/delta) on step 340000
  2 1.00007 1.44405e-05
  2 109.47 0.00109698
---------------- Step   340000 ----- CPU =    927.6065 (sec) ----------------
TotEng   =     -3387.8582 KinEng   =       649.7577 Temp     =       301.0777 
PotEng   =     -4037.6158 E_bond   =         0.7027 E_angle  =         2.5370 
E_dihed  =         0.0000 E_impro  =         0.0000 E_vdwl   =       766.7380 
E_coul   =     14623.5056 E_long   =    -19431.0991 Press    =       126.2230 
Volume   =     10561.5451 
SHAKE stats (type/ave/delta) on step 350000
  2 0.999921 9.08072e-06
  2 109.47 0.00108116
---------------- Step   350000 ----- CPU =    956.0214 (sec) ----------------
TotEng   =     -3361.1299 KinEng   =       651.5268 Temp     =       301.8974 
PotEng   =     -4012.6567 E_bond   =         2.2606 E_angle  =         1.8904 
E_dihed  =         0.0000 E_impro  =         0.0000 E_vdwl   =       756.6978 
E_coul   =     14656.0844 E_long   =    -19429.5898 Press    =      -611.4902 
Volume   =     11006.6910 
SHAKE stats (type/ave/delta) on step 360000
  2 1.00007 4.18591e-06
  2 109.47 0.000361745
---------------- Step   360000 ----- CPU =    983.8733 (sec) ----------------
TotEng   =     -3396.2027 KinEng   =       611.0629 Temp     =       283.1477 
PotEng   =     -4007.2656 E_bond   =         3.2118 E_angle  =         1.0366 
E_dihed  =         0.0000 E_impro  =         0.0000 E_vdwl   =       763.2035 
E_coul   =     14654.0355 E_long   =    -19428.7530 Press    =      -273.6306 
Volume   =     10942.3060 
SHAKE stats (type/ave/delta) on step 370000
  2 0.999984 4.11404e-06
  2 109.47 0.000440257
---------------- Step   370000 ----- CPU =   1011.6452 (sec) ----------------
TotEng   =     -3305.9439 KinEng   =       673.7174 Temp     =       312.1799 
PotEng   =     -3979.6613 E_bond   =         0.7514 E_angle  =         1.3031 
E_dihed  =         0.0000 E_impro  =         0.0000 E_vdwl   =       788.3190 
E_coul   =     14656.3210 E_long   =    -19426.3558 Press    =       625.5211 
Volume   =     10824.1240 
SHAKE stats (type/ave/delta) on step 380000
  2 0.999922 4.47492e-06
  2 109.47 0.000400952
---------------- Step   380000 ----- CPU =   1038.1384 (sec) ----------------
TotEng   =     -3345.9249 KinEng   =       646.7587 Temp     =       299.6880 
PotEng   =     -3992.6835 E_bond   =         1.5883 E_angle  =         1.1395 
E_dihed  =         0.0000 E_impro  =         0.0000 E_vdwl   =       731.4292 
E_coul   =     14701.5102 E_long   =    -19428.3507 Press    =      -578.8348 
Volume   =     10929.9199 
SHAKE stats (type/ave/delta) on step 390000
  2 1.00012 5.25766e-06
  2 109.47 0.000393948
---------------- Step   390000 ----- CPU =   1062.5004 (sec) ----------------
TotEng   =     -3362.8313 KinEng   =       647.0845 Temp     =       299.8390 
PotEng   =     -4009.9158 E_bond   =         1.7112 E_angle  =         1.6653 
E_dihed  =         0.0000 E_impro  =         0.0000 E_vdwl   =       784.1004 
E_coul   =     14629.5092 E_long   =    -19426.9018 Press    =       143.1696 
Volume   =     10813.4285 
SHAKE stats (type/ave/delta) on step 400000
  2 1 4.4841e-06
  2 109.47 0.00036912
---------------- Step   400000 ----- CPU =   1086.8800 (sec) ----------------
TotEng   =     -3304.2808 KinEng   =       660.0110 Temp     =       305.8288 
PotEng   =     -3964.2918 E_bond   =         1.9995 E_angle  =         1.1156 
E_dihed  =         0.0000 E_impro  =         0.0000 E_vdwl   =       736.3819 
E_coul   =     14724.5924 E_long   =    -19428.3813 Press    =      -381.9013 
Volume   =     10903.4646 
SHAKE stats (type/ave/delta) on step 410000
  2 0.999864 7.40681e-06
  2 109.47 0.000600274
---------------- Step   410000 ----- CPU =   1113.5974 (sec) ----------------
TotEng   =     -3335.7291 KinEng   =       660.0898 Temp     =       305.8653 
PotEng   =     -3995.8189 E_bond   =         0.6945 E_angle  =         1.6309 
E_dihed  =         0.0000 E_impro  =         0.0000 E_vdwl   =       769.5101 
E_coul   =     14661.7511 E_long   =    -19429.4055 Press    =       229.6449 
Volume   =     10846.7389 
SHAKE stats (type/ave/delta) on step 420000
  2 1.00002 7.50429e-06
  2 109.47 0.000599504
---------------- Step   420000 ----- CPU =   1141.4561 (sec) ----------------
TotEng   =     -3315.8732 KinEng   =       653.5206 Temp     =       302.8213 
PotEng   =     -3969.3939 E_bond   =         1.6304 E_angle  =         0.6753 
E_dihed  =         0.0000 E_impro  =         0.0000 E_vdwl   =       799.3537 
E_coul   =     14658.7864 E_long   =    -19429.8397 Press    =      1262.2492 
Volume   =     10779.3438 
SHAKE stats (type/ave/delta) on step 430000
  2 1.00006 1.11367e-05
  2 109.47 0.000659322
---------------- Step   430000 ----- CPU =   1169.2720 (sec) ----------------
TotEng   =     -3422.5426 KinEng   =       624.0027 Temp     =       289.1436 
PotEng   =     -4046.5453 E_bond   =         2.1837 E_angle  =         1.1032 
E_dihed  =         0.0000 E_impro  =         0.0000 E_vdwl   =       775.5800 
E_coul   =     14602.1122 E_long   =    -19427.5244 Press    =      -116.8489 
Volume   =     10641.0944 
SHAKE stats (type/ave/delta) on step 440000
  2 1.00005 4.62783e-06
  2 109.47 0.000416589
---------------- Step   440000 ----- CPU =   1196.8684 (sec) ----------------
TotEng   =     -3297.6390 KinEng   =       663.9738 Temp     =       307.6650 
PotEng   =     -3961.6128 E_bond   =         1.2921 E_angle  =         1.4465 
E_dihed  =         0.0000 E_impro  =         0.0000 E_vdwl   =       771.6695 
E_coul   =     14694.3005 E_long   =    -19430.3215 Press    =       144.8927 
Volume   =     11126.9183 
SHAKE stats (type/ave/delta) on step 450000
  2 1.00011 1.08069e-05
  2 109.47 0.000905844
---------------- Step   450000 ----- CPU =   1223.2722 (sec) ----------------
TotEng   =     -3395.0443 KinEng   =       622.3141 Temp     =       288.3612 
PotEng   =     -4017.3583 E_bond   =         0.4397 E_angle  =         1.7068 
E_dihed  =         0.0000 E_impro  =         0.0000 E_vdwl   =       746.7541 
E_coul   =     14661.6993 E_long   =    -19427.9583 Press    =      -618.9176 
Volume   =     10895.5713 
SHAKE stats (type/ave/delta) on step 460000
  2 0.99996 1.02885e-05
  2 109.47 0.000731968
---------------- Step   460000 ----- CPU =   1251.2543 (sec) ----------------
TotEng   =     -3374.3252 KinEng   =       630.2029 Temp     =       292.0166 
PotEng   =     -4004.5281 E_bond   =         1.3905 E_angle  =         1.8498 
E_dihed  =         0.0000 E_impro  =         0.0000 E_vdwl   =       829.2961 
E_coul   =     14592.9098 E_long   =    -19429.9743 Press    =      1313.9465 
Volume   =     10663.3641 
SHAKE stats (type/ave/delta) on step 470000
  2 0.999959 7.92976e-06
  2 109.47 0.000805162
---------------- Step   470000 ----- CPU =   1280.8712 (sec) ----------------
TotEng   =     -3331.8049 KinEng   =       653.6777 Temp     =       302.8941 
PotEng   =     -3985.4826 E_bond   =         1.0225 E_angle  =         1.1805 
E_dihed  =         0.0000 E_impro  =         0.0000 E_vdwl   =       749.6751 
E_coul   =     14689.3091 E_long   =    -19426.6698 Press    =       -18.6947 
Volume   =     10698.4849 
SHAKE stats (type/ave/delta) on step 480000
  2 0.999919 6.0445e-06
  2 109.47 0.000463266
---------------- Step   480000 ----- CPU =   1309.9172 (sec) ----------------
TotEng   =     -3335.8682 KinEng   =       665.2283 Temp     =       308.2463 
PotEng   =     -4001.0965 E_bond   =         1.1929 E_angle  =         1.8776 
E_dihed  =         0.0000 E_impro  =         0.0000 E_vdwl   =       756.8258 
E_coul   =     14666.3286 E_long   =    -19427.3214 Press    =      -680.3111 
Volume   =     11016.0736 
SHAKE stats (type/ave/delta) on step 490000
  2 0.999914 9.97803e-06
  2 109.47 0.000840589
---------------- Step   490000 ----- CPU =   1337.5195 (sec) ----------------
TotEng   =     -3327.1840 KinEng   =       651.4464 Temp     =       301.8602 
PotEng   =     -3978.6304 E_bond   =         0.2094 E_angle  =         2.5927 
E_dihed  =         0.0000 E_impro  =         0.0000 E_vdwl   =       763.3552 
E_coul   =     14681.6563 E_long   =    -19426.4440 Press    =      -235.1700 
Volume   =     11048.0280 
SHAKE stats (type/ave/delta) on step 500000
  2 0.999982 5.99496e-06
  2 109.47 0.00042271
---------------- Step   500000 ----- CPU =   1364.5117 (sec) ----------------
TotEng   =     -3271.6797 KinEng   =       661.0434 Temp     =       306.3071 
PotEng   =     -3932.7231 E_bond   =         0.8936 E_angle  =         2.6765 
E_dihed  =         0.0000 E_impro  =         0.0000 E_vdwl   =       709.4694 
E_coul   =     14782.5288 E_long   =    -19428.2913 Press    =     -1385.5670 
Volume   =     11488.8330 
SHAKE stats (type/ave/delta) on step 510000
  2 0.999992 4.03266e-06
  2 109.47 0.000386595
---------------- Step   510000 ----- CPU =   1390.0051 (sec) ----------------
TotEng   =     -3389.0985 KinEng   =       638.9101 Temp     =       296.0512 
PotEng   =     -4028.0086 E_bond   =         0.7365 E_angle  =         1.7862 
E_dihed  =         0.0000 E_impro  =         0.0000 E_vdwl   =       757.3810 
E_coul   =     14643.1629 E_long   =    -19431.0753 Press    =      -768.8448 
Volume   =     11030.0108 
SHAKE stats (type/ave/delta) on step 520000
  2 0.999828 1.15895e-05
  2 109.47 0.000848696
---------------- Step   520000 ----- CPU =   1416.1233 (sec) ----------------
TotEng   =     -3320.2292 KinEng   =       667.2324 Temp     =       309.1749 
PotEng   =     -3987.4616 E_bond   =         1.0810 E_angle  =         0.3432 
E_dihed  =         0.0000 E_impro  =         0.0000 E_vdwl   =       806.0097 
E_coul   =     14631.1460 E_long   =    -19426.0415 Press    =       820.4237 
Volume   =     10849.9384 
SHAKE stats (type/ave/delta) on step 530000
  2 0.999955 4.60571e-06
  2 109.47 0.000395766
---------------- Step   530000 ----- CPU =   1443.8365 (sec) ----------------
TotEng   =     -3319.3610 KinEng   =       704.1201 Temp     =       326.2676 
PotEng   =     -4023.4811 E_bond   =         1.4199 E_angle  =         1.4384 
E_dihed  =         0.0000 E_impro  =         0.0000 E_vdwl   =       815.0284 
E_coul   =     14589.3795 E_long   =    -19430.7474 Press    =       708.1150 
Volume   =     10869.0178 
SHAKE stats (type/ave/delta) on step 540000
  2 1.00005 5.27852e-06
  2 109.47 0.000426601
---------------- Step   540000 ----- CPU =   1472.3484 (sec) ----------------
TotEng   =     -3305.0074 KinEng   =       649.8825 Temp     =       301.1355 
PotEng   =     -3954.8899 E_bond   =         0.1121 E_angle  =         2.1265 
E_dihed  =         0.0000 E_impro  =         0.0000 E_vdwl   =       792.8159 
E_coul   =     14676.0604 E_long   =    -19426.0047 Press    =       456.8597 
Volume   =     11138.0957 
SHAKE stats (type/ave/delta) on step 550000
  2 1.0001 3.98536e-06
  2 109.47 0.000371676
---------------- Step   550000 ----- CPU =   1499.7794 (sec) ----------------
TotEng   =     -3325.2176 KinEng   =       656.4412 Temp     =       304.1746 
PotEng   =     -3981.6589 E_bond   =         0.5041 E_angle  =         2.1007 
E_dihed  =         0.0000 E_impro  =         0.0000 E_vdwl   =       794.4452 
E_coul   =     14651.4239 E_long   =    -19430.1329 Press    =       522.1602 
Volume   =     10942.3151 
SHAKE stats (type/ave/delta) on step 560000
  2 0.999865 9.58197e-06
  2 109.47 0.000871827
---------------- Step   560000 ----- CPU =   1527.3762 (sec) ----------------
TotEng   =     -3327.2438 KinEng   =       634.5247 Temp     =       294.0192 
PotEng   =     -3961.7685 E_bond   =         0.5219 E_angle  =         2.6504 
E_dihed  =         0.0000 E_impro  =         0.0000 E_vdwl   =       719.4095 
E_coul   =     14741.3127 E_long   =    -19425.6630 Press    =      -795.2022 
Volume   =     11052.9789 
SHAKE stats (type/ave/delta) on step 570000
  2 1.00002 7.767e-06
  2 109.47 0.000743846
---------------- Step   570000 ----- CPU =   1554.5723 (sec) ----------------
TotEng   =     -3323.0180 KinEng   =       645.1078 Temp     =       298.9230 
PotEng   =     -3968.1257 E_bond   =         2.5561 E_angle  =         1.9754 
E_dihed  =         0.0000 E_impro  =         0.0000 E_vdwl   =       758.9971 
E_coul   =     14696.4057 E_long   =    -19428.0600 Press    =       887.5917 
Volume   =     10575.1144 
SHAKE stats (type/ave/delta) on step 580000
  2 1.00006 6.71743e-06
  2 109.47 0.000674754
---------------- Step   580000 ----- CPU =   1581.9580 (sec) ----------------
TotEng   =     -3381.9500 KinEng   =       636.3325 Temp     =       294.8568 
PotEng   =     -4018.2824 E_bond   =         1.4396 E_angle  =         1.5416 
E_dihed  =         0.0000 E_impro  =         0.0000 E_vdwl   =       765.5787 
E_coul   =     14641.1506 E_long   =    -19427.9930 Press    =      -584.6648 
Volume   =     11045.2503 
SHAKE stats (type/ave/delta) on step 590000
  2 1.00003 5.67763e-06
  2 109.47 0.00042601
---------------- Step   590000 ----- CPU =   1607.9607 (sec) ----------------
TotEng   =     -3422.3157 KinEng   =       643.7564 Temp     =       298.2969 
PotEng   =     -4066.0721 E_bond   =         2.1068 E_angle  =         1.3307 
E_dihed  =         0.0000 E_impro  =         0.0000 E_vdwl   =       800.5080 
E_coul   =     14560.0644 E_long   =    -19430.0820 Press    =       -71.4300 
Volume   =     10876.6575 
SHAKE stats (type/ave/delta) on step 600000
  2 0.999919 1.2385e-05
  2 109.47 0.00118838
---------------- Step   600000 ----- CPU =   1636.7821 (sec) ----------------
TotEng   =     -3301.5773 KinEng   =       639.7437 Temp     =       296.4375 
PotEng   =     -3941.3210 E_bond   =         1.2189 E_angle  =         1.0824 
E_dihed  =         0.0000 E_impro  =         0.0000 E_vdwl   =       737.4263 
E_coul   =     14743.9267 E_long   =    -19424.9753 Press    =      -411.7885 
Volume   =     11019.9334 
SHAKE stats (type/ave/delta) on step 610000
  2 1.00007 4.04447e-06
  2 109.47 0.000373756
---------------- Step   610000 ----- CPU =   1665.0584 (sec) ----------------
TotEng   =     -3433.9661 KinEng   =       616.2761 Temp     =       285.5633 
PotEng   =     -4050.2422 E_bond   =         0.4287 E_angle  =         2.6501 
E_dihed  =         0.0000 E_impro  =         0.0000 E_vdwl   =       747.9286 
E_coul   =     14625.3064 E_long   =    -19426.5560 Press    =     -1145.0696 
Volume   =     10987.4100 
SHAKE stats (type/ave/delta) on step 620000
  2 0.999993 6.62667e-06
  2 109.47 0.000493792
---------------- Step   620000 ----- CPU =   1694.0218 (sec) ----------------
TotEng   =     -3376.3792 KinEng   =       663.9895 Temp     =       307.6723 
PotEng   =     -4040.3687 E_bond   =         0.3512 E_angle  =         2.1125 
E_dihed  =         0.0000 E_impro  =         0.0000 E_vdwl   =       741.6134 
E_coul   =     14643.2533 E_long   =    -19427.6991 Press    =      -349.6526 
Volume   =     10515.2358 
SHAKE stats (type/ave/delta) on step 630000
  2 1.00002 4.37584e-06
  2 109.47 0.000448695
---------------- Step   630000 ----- CPU =   1720.7415 (sec) ----------------
TotEng   =     -3355.9233 KinEng   =       668.0536 Temp     =       309.5555 
PotEng   =     -4023.9769 E_bond   =         0.0355 E_angle  =         1.8909 
E_dihed  =         0.0000 E_impro  =         0.0000 E_vdwl   =       765.0905 
E_coul   =     14637.3031 E_long   =    -19428.2969 Press    =      -188.5378 
Volume   =     10789.1451 
SHAKE stats (type/ave/delta) on step 640000
  2 0.999963 4.4904e-06
  2 109.47 0.000478816
---------------- Step   640000 ----- CPU =   1746.7153 (sec) ----------------
TotEng   =     -3412.8939 KinEng   =       643.1824 Temp     =       298.0309 
PotEng   =     -4056.0763 E_bond   =         0.3726 E_angle  =         2.0228 
E_dihed  =         0.0000 E_impro  =         0.0000 E_vdwl   =       760.3821 
E_coul   =     14610.6216 E_long   =    -19429.4754 Press    =      -346.0620 
Volume   =     10743.0791 
SHAKE stats (type/ave/delta) on step 650000
  2 1.00006 5.19524e-06
  2 109.47 0.000416816
---------------- Step   650000 ----- CPU =   1773.1420 (sec) ----------------
TotEng   =     -3313.9987 KinEng   =       622.1384 Temp     =       288.2798 
PotEng   =     -3936.1371 E_bond   =         0.5901 E_angle  =         1.3942 
E_dihed  =         0.0000 E_impro  =         0.0000 E_vdwl   =       734.2452 
E_coul   =     14753.5734 E_long   =    -19425.9400 Press    =      -119.7114 
Volume   =     10863.0481 
SHAKE stats (type/ave/delta) on step 660000
  2 0.999987 1.13631e-05
  2 109.47 0.00142808
---------------- Step   660000 ----- CPU =   1801.9729 (sec) ----------------
TotEng   =     -3270.6820 KinEng   =       661.7208 Temp     =       306.6210 
PotEng   =     -3932.4029 E_bond   =         0.7892 E_angle  =         1.3007 
E_dihed  =         0.0000 E_impro  =         0.0000 E_vdwl   =       733.6521 
E_coul   =     14759.6830 E_long   =    -19427.8280 Press    =        23.2326 
Volume   =     10983.4448 
SHAKE stats (type/ave/delta) on step 670000
  2 1.00012 4.33176e-06
  2 109.47 0.000375617
---------------- Step   670000 ----- CPU =   1831.3463 (sec) ----------------
TotEng   =     -3365.8967 KinEng   =       656.8318 Temp     =       304.3556 
PotEng   =     -4022.7286 E_bond   =         0.4733 E_angle  =         1.2493 
E_dihed  =         0.0000 E_impro  =         0.0000 E_vdwl   =       812.0602 
E_coul   =     14593.0724 E_long   =    -19429.5839 Press    =       409.6583 
Volume   =     10964.0916 
SHAKE stats (type/ave/delta) on step 680000
  2 0.999994 5.63912e-06
  2 109.47 0.000617503
---------------- Step   680000 ----- CPU =   1858.9876 (sec) ----------------
TotEng   =     -3380.1533 KinEng   =       633.7498 Temp     =       293.6601 
PotEng   =     -4013.9031 E_bond   =         0.7346 E_angle  =         0.9593 
E_dihed  =         0.0000 E_impro  =         0.0000 E_vdwl   =       809.4672 
E_coul   =     14603.0163 E_long   =    -19428.0804 Press    =       626.2578 
Volume   =     10882.0738 
SHAKE stats (type/ave/delta) on step 690000
  2 0.999946 6.7667e-06
  2 109.47 0.000750061
---------------- Step   690000 ----- CPU =   1886.7463 (sec) ----------------
TotEng   =     -3387.7550 KinEng   =       614.7170 Temp     =       284.8409 
PotEng   =     -4002.4720 E_bond   =         0.9606 E_angle  =         1.0427 
E_dihed  =         0.0000 E_impro  =         0.0000 E_vdwl   =       751.5688 
E_coul   =     14672.6766 E_long   =    -19428.7207 Press    =      -754.7824 
Volume   =     11186.7785 
SHAKE stats (type/ave/delta) on step 700000
  2 1.00006 6.43463e-06
  2 109.47 0.000554259
---------------- Step   700000 ----- CPU =   1914.9703 (sec) ----------------
TotEng   =     -3393.5266 KinEng   =       646.3682 Temp     =       299.5071 
PotEng   =     -4039.8948 E_bond   =         1.0980 E_angle  =         0.4664 
E_dihed  =         0.0000 E_impro  =         0.0000 E_vdwl   =       775.4685 
E_coul   =     14610.9814 E_long   =    -19427.9091 Press    =      -212.0235 
Volume   =     10919.9165 
SHAKE stats (type/ave/delta) on step 710000
  2 0.99997 5.41145e-06
  2 109.47 0.000440394
---------------- Step   710000 ----- CPU =   1942.4452 (sec) ----------------
TotEng   =     -3351.7776 KinEng   =       647.3439 Temp     =       299.9592 
PotEng   =     -3999.1216 E_bond   =         0.9587 E_angle  =         0.6821 
E_dihed  =         0.0000 E_impro  =         0.0000 E_vdwl   =       815.3932 
E_coul   =     14609.8672 E_long   =    -19426.0228 Press    =       953.5739 
Volume   =     10813.8066 
SHAKE stats (type/ave/delta) on step 720000
  2 0.999904 7.09193e-06
  2 109.47 0.000637014
---------------- Step   720000 ----- CPU =   1969.9580 (sec) ----------------
TotEng   =     -3316.5665 KinEng   =       651.0345 Temp     =       301.6693 
PotEng   =     -3967.6009 E_bond   =         0.6577 E_angle  =         0.6965 
E_dihed  =         0.0000 E_impro  =         0.0000 E_vdwl   =       733.1135 
E_coul   =     14724.2922 E_long   =    -19426.3609 Press    =      -229.1527 
Volume   =     10845.2305 
SHAKE stats (type/ave/delta) on step 730000
  2 1.00006 5.82442e-06
  2 109.47 0.00043261
---------------- Step   730000 ----- CPU =   1998.6385 (sec) ----------------
TotEng   =     -3357.5457 KinEng   =       644.4917 Temp     =       298.6376 
PotEng   =     -4002.0374 E_bond   =         0.8771 E_angle  =         1.6657 
E_dihed  =         0.0000 E_impro  =         0.0000 E_vdwl   =       812.2547 
E_coul   =     14610.8881 E_long   =    -19427.7230 Press    =      1040.4577 
Volume   =     10814.4766 
SHAKE stats (type/ave/delta) on step 740000
  2 1.00003 1.21156e-05
  2 109.47 0.000951538
---------------- Step   740000 ----- CPU =   2026.2719 (sec) ----------------
TotEng   =     -3382.4412 KinEng   =       645.7358 Temp     =       299.2141 
PotEng   =     -4028.1770 E_bond   =         1.3583 E_angle  =         1.2625 
E_dihed  =         0.0000 E_impro  =         0.0000 E_vdwl   =       744.0848 
E_coul   =     14656.7837 E_long   =    -19431.6662 Press    =      -674.1336 
Volume   =     10900.8024 
SHAKE stats (type/ave/delta) on step 750000
  2 0.999972 8.0033e-06
  2 109.47 0.000833404
---------------- Step   750000 ----- CPU =   2053.5808 (sec) ----------------
TotEng   =     -3326.2746 KinEng   =       635.6974 Temp     =       294.5626 
PotEng   =     -3961.9721 E_bond   =         0.4008 E_angle  =         2.3041 
E_dihed  =         0.0000 E_impro  =         0.0000 E_vdwl   =       793.1397 
E_coul   =     14673.1933 E_long   =    -19431.0099 Press    =       988.8964 
Volume   =     10860.1538 
SHAKE stats (type/ave/delta) on step 760000
  2 1 5.81251e-06
  2 109.47 0.000480281
---------------- Step   760000 ----- CPU =   2079.7064 (sec) ----------------
TotEng   =     -3389.7058 KinEng   =       620.4739 Temp     =       287.5085 
PotEng   =     -4010.1797 E_bond   =         1.7986 E_angle  =         1.4139 
E_dihed  =         0.0000 E_impro  =         0.0000 E_vdwl   =       776.8100 
E_coul   =     14637.7888 E_long   =    -19427.9910 Press    =        43.1279 
Volume   =     10994.4491 
SHAKE stats (type/ave/delta) on step 770000
  2 0.999949 3.92238e-06
  2 109.47 0.000362699
---------------- Step   770000 ----- CPU =   2105.3390 (sec) ----------------
TotEng   =     -3339.5939 KinEng   =       645.0174 Temp     =       298.8812 
PotEng   =     -3984.6113 E_bond   =         0.6428 E_angle  =         1.3772 
E_dihed  =         0.0000 E_impro  =         0.0000 E_vdwl   =       777.2979 
E_coul   =     14667.1274 E_long   =    -19431.0566 Press    =       361.1715 
Volume   =     10860.1249 
SHAKE stats (type/ave/delta) on step 780000
  2 0.999938 7.62387e-06
  2 109.47 0.000807146
---------------- Step   780000 ----- CPU =   2131.7914 (sec) ----------------
TotEng   =     -3354.3514 KinEng   =       660.4323 Temp     =       306.0239 
PotEng   =     -4014.7837 E_bond   =         2.3650 E_angle  =         1.4260 
E_dihed  =         0.0000 E_impro  =         0.0000 E_vdwl   =       770.1396 
E_coul   =     14640.4815 E_long   =    -19429.1958 Press    =      -188.5043 
Volume   =     11025.5139 
SHAKE stats (type/ave/delta) on step 790000
  2 1.0001 4.49159e-06
  2 109.47 0.000354895
---------------- Step   790000 ----- CPU =   2160.1355 (sec) ----------------
TotEng   =     -3379.0461 KinEng   =       628.2686 Temp     =       291.1203 
PotEng   =     -4007.3147 E_bond   =         2.0261 E_angle  =         1.4076 
E_dihed  =         0.0000 E_impro  =         0.0000 E_vdwl   =       781.9437 
E_coul   =     14635.6219 E_long   =    -19428.3140 Press    =      -289.9792 
Volume   =     10962.3953 
SHAKE stats (type/ave/delta) on step 800000
  2 1.00009 4.38345e-06
  2 109.47 0.000482188
---------------- Step   800000 ----- CPU =   2188.2509 (sec) ----------------
TotEng   =     -3344.0899 KinEng   =       662.3411 Temp     =       306.9084 
PotEng   =     -4006.4310 E_bond   =         1.5528 E_angle  =         0.9639 
E_dihed  =         0.0000 E_impro  =         0.0000 E_vdwl   =       756.3237 
E_coul   =     14663.3493 E_long   =    -19428.6207 Press    =      -175.5544 
Volume   =     10796.0242 
SHAKE stats (type/ave/delta) on step 810000
  2 1.00002 1.38349e-05
  2 109.47 0.00150889
---------------- Step   810000 ----- CPU =   2215.5885 (sec) ----------------
TotEng   =     -3314.5241 KinEng   =       647.8273 Temp     =       300.1832 
PotEng   =     -3962.3514 E_bond   =         1.3798 E_angle  =         1.6298 
E_dihed  =         0.0000 E_impro  =         0.0000 E_vdwl   =       736.5211 
E_coul   =     14728.6205 E_long   =    -19430.5026 Press    =       -94.4211 
Volume   =     10736.7224 
SHAKE stats (type/ave/delta) on step 820000
  2 1.00004 5.37985e-06
  2 109.47 0.000450747
---------------- Step   820000 ----- CPU =   2243.1057 (sec) ----------------
TotEng   =     -3323.8572 KinEng   =       657.8200 Temp     =       304.8135 
PotEng   =     -3981.6772 E_bond   =         1.5189 E_angle  =         2.8424 
E_dihed  =         0.0000 E_impro  =         0.0000 E_vdwl   =       719.7690 
E_coul   =     14718.8527 E_long   =    -19424.6601 Press    =     -1085.8584 
Volume   =     10986.6853 
SHAKE stats (type/ave/delta) on step 830000
  2 0.999946 3.68378e-06
  2 109.47 0.000393324
---------------- Step   830000 ----- CPU =   2271.0986 (sec) ----------------
TotEng   =     -3333.1502 KinEng   =       641.4804 Temp     =       297.2422 
PotEng   =     -3974.6306 E_bond   =         0.6502 E_angle  =         2.3103 
E_dihed  =         0.0000 E_impro  =         0.0000 E_vdwl   =       729.5615 
E_coul   =     14721.8628 E_long   =    -19429.0153 Press    =      -535.4292 
Volume   =     10836.2696 
SHAKE stats (type/ave/delta) on step 840000
  2 0.999887 5.53547e-06
  2 109.47 0.000384942
---------------- Step   840000 ----- CPU =   2299.5065 (sec) ----------------
TotEng   =     -3343.4057 KinEng   =       646.0385 Temp     =       299.3543 
PotEng   =     -3989.4442 E_bond   =         0.7743 E_angle  =         2.5744 
E_dihed  =         0.0000 E_impro  =         0.0000 E_vdwl   =       795.1405 
E_coul   =     14639.6491 E_long   =    -19427.5825 Press    =       610.7690 
Volume   =     10858.1345 
SHAKE stats (type/ave/delta) on step 850000
  2 1.00011 5.47823e-06
  2 109.47 0.000453852
---------------- Step   850000 ----- CPU =   2327.3531 (sec) ----------------
TotEng   =     -3340.3856 KinEng   =       651.9008 Temp     =       302.0707 
PotEng   =     -3992.2864 E_bond   =         1.2597 E_angle  =         0.4022 
E_dihed  =         0.0000 E_impro  =         0.0000 E_vdwl   =       738.3941 
E_coul   =     14693.7738 E_long   =    -19426.1162 Press    =        10.0061 
Volume   =     10602.5546 
SHAKE stats (type/ave/delta) on step 860000
  2 1.00004 1.26749e-05
  2 109.47 0.000814846
---------------- Step   860000 ----- CPU =   2355.3656 (sec) ----------------
TotEng   =     -3320.2355 KinEng   =       651.7656 Temp     =       302.0081 
PotEng   =     -3972.0011 E_bond   =         1.0886 E_angle  =         1.6236 
E_dihed  =         0.0000 E_impro  =         0.0000 E_vdwl   =       793.0086 
E_coul   =     14659.1132 E_long   =    -19426.8351 Press    =       688.3332 
Volume   =     10989.7814 
SHAKE stats (type/ave/delta) on step 870000
  2 0.999956 4.36508e-06
  2 109.47 0.000363426
---------------- Step   870000 ----- CPU =   2382.8966 (sec) ----------------
TotEng   =     -3333.4103 KinEng   =       634.1635 Temp     =       293.8518 
PotEng   =     -3967.5738 E_bond   =         2.8552 E_angle  =         0.7386 
E_dihed  =         0.0000 E_impro  =         0.0000 E_vdwl   =       803.3329 
E_coul   =     14657.2108 E_long   =    -19431.7112 Press    =       783.2742 
Volume   =     10977.8488 
SHAKE stats (type/ave/delta) on step 880000
  2 1.00004 9.82302e-06
  2 109.47 0.000782033
---------------- Step   880000 ----- CPU =   2410.3522 (sec) ----------------
TotEng   =     -3360.7659 KinEng   =       645.9455 Temp     =       299.3112 
PotEng   =     -4006.7114 E_bond   =         0.5685 E_angle  =         1.0885 
E_dihed  =         0.0000 E_impro  =         0.0000 E_vdwl   =       670.8557 
E_coul   =     14750.5341 E_long   =    -19429.7583 Press    =     -2268.1285 
Volume   =     11175.6370 
SHAKE stats (type/ave/delta) on step 890000
  2 0.999962 5.89471e-06
  2 109.47 0.000612935
---------------- Step   890000 ----- CPU =   2436.2953 (sec) ----------------
TotEng   =     -3329.0272 KinEng   =       646.6225 Temp     =       299.6249 
PotEng   =     -3975.6497 E_bond   =         0.5543 E_angle  =         0.4591 
E_dihed  =         0.0000 E_impro  =         0.0000 E_vdwl   =       767.8670 
E_coul   =     14683.0764 E_long   =    -19427.6064 Press    =        68.8665 
Volume   =     10944.5633 
SHAKE stats (type/ave/delta) on step 900000
  2 1.00005 5.53753e-06
  2 109.47 0.000522076
---------------- Step   900000 ----- CPU =   2461.8806 (sec) ----------------
TotEng   =     -3354.8933 KinEng   =       640.0154 Temp     =       296.5634 
PotEng   =     -3994.9087 E_bond   =         0.7920 E_angle  =         0.8561 
E_dihed  =         0.0000 E_impro  =         0.0000 E_vdwl   =       790.0340 
E_coul   =     14639.2014 E_long   =    -19425.7921 Press    =       324.1987 
Volume   =     10816.7583 
SHAKE stats (type/ave/delta) on step 910000
  2 0.999885 7.92133e-06
  2 109.47 0.000665834
---------------- Step   910000 ----- CPU =   2489.9490 (sec) ----------------
TotEng   =     -3447.2957 KinEng   =       621.8912 Temp     =       288.1652 
PotEng   =     -4069.1870 E_bond   =         1.0877 E_angle  =         0.4792 
E_dihed  =         0.0000 E_impro  =         0.0000 E_vdwl   =       844.6738 
E_coul   =     14513.8940 E_long   =    -19429.3216 Press    =       965.8485 
Volume   =     10890.6409 
SHAKE stats (type/ave/delta) on step 920000
  2 1.00008 5.85196e-06
  2 109.47 0.000485602
---------------- Step   920000 ----- CPU =   2518.2908 (sec) ----------------
TotEng   =     -3367.4100 KinEng   =       652.7649 Temp     =       302.4711 
PotEng   =     -4020.1749 E_bond   =         0.2737 E_angle  =         0.5124 
E_dihed  =         0.0000 E_impro  =         0.0000 E_vdwl   =       754.5931 
E_coul   =     14652.2111 E_long   =    -19427.7652 Press    =      -156.3129 
Volume   =     10709.6002 
SHAKE stats (type/ave/delta) on step 930000
  2 1.00002 3.86479e-06
  2 109.47 0.000393082
---------------- Step   930000 ----- CPU =   2545.9848 (sec) ----------------
TotEng   =     -3390.1499 KinEng   =       626.1638 Temp     =       290.1450 
PotEng   =     -4016.3137 E_bond   =         0.6435 E_angle  =         0.8304 
E_dihed  =         0.0000 E_impro  =         0.0000 E_vdwl   =       765.5694 
E_coul   =     14643.4153 E_long   =    -19426.7722 Press    =      -473.5507 
Volume   =     11011.4655 
SHAKE stats (type/ave/delta) on step 940000
  2 1.00003 3.98348e-06
  2 109.47 0.000371573
---------------- Step   940000 ----- CPU =   2573.7293 (sec) ----------------
TotEng   =     -3379.2863 KinEng   =       632.9533 Temp     =       293.2911 
PotEng   =     -4012.2397 E_bond   =         1.4055 E_angle  =         0.6530 
E_dihed  =         0.0000 E_impro  =         0.0000 E_vdwl   =       806.2737 
E_coul   =     14602.9306 E_long   =    -19423.5026 Press    =       166.7467 
Volume   =     11159.3501 
SHAKE stats (type/ave/delta) on step 950000
  2 0.999978 7.60075e-06
  2 109.47 0.000584692
---------------- Step   950000 ----- CPU =   2601.6361 (sec) ----------------
TotEng   =     -3375.4145 KinEng   =       655.7800 Temp     =       303.8682 
PotEng   =     -4031.1945 E_bond   =         0.1976 E_angle  =         0.8883 
E_dihed  =         0.0000 E_impro  =         0.0000 E_vdwl   =       777.9311 
E_coul   =     14616.6318 E_long   =    -19426.8434 Press    =      -386.8457 
Volume   =     11060.9609 
SHAKE stats (type/ave/delta) on step 960000
  2 0.999983 1.08734e-05
  2 109.47 0.000851066
---------------- Step   960000 ----- CPU =   2629.0634 (sec) ----------------
TotEng   =     -3318.7906 KinEng   =       673.0460 Temp     =       311.8688 
PotEng   =     -3991.8367 E_bond   =         0.2112 E_angle  =         2.0673 
E_dihed  =         0.0000 E_impro  =         0.0000 E_vdwl   =       772.6465 
E_coul   =     14659.7642 E_long   =    -19426.5258 Press    =      -394.3649 
Volume   =     11276.9208 
SHAKE stats (type/ave/delta) on step 970000
  2 0.999869 4.41696e-06
  2 109.47 0.000495959
---------------- Step   970000 ----- CPU =   2656.5431 (sec) ----------------
TotEng   =     -3286.7738 KinEng   =       674.8655 Temp     =       312.7118 
PotEng   =     -3961.6393 E_bond   =         0.2876 E_angle  =         2.5215 
E_dihed  =         0.0000 E_impro  =         0.0000 E_vdwl   =       788.9409 
E_coul   =     14676.1320 E_long   =    -19429.5212 Press    =       844.7366 
Volume   =     10782.3106 
SHAKE stats (type/ave/delta) on step 980000
  2 1.00018 8.72672e-06
  2 109.47 0.000798496
---------------- Step   980000 ----- CPU =   2683.9025 (sec) ----------------
TotEng   =     -3334.2858 KinEng   =       667.8309 Temp     =       309.4523 
PotEng   =     -4002.1168 E_bond   =         2.6736 E_angle  =         0.7220 
E_dihed  =         0.0000 E_impro  =         0.0000 E_vdwl   =       828.1681 
E_coul   =     14594.9422 E_long   =    -19428.6227 Press    =       770.3026 
Volume   =     11078.5918 
SHAKE stats (type/ave/delta) on step 990000
  2 0.999984 7.43856e-06
  2 109.47 0.000934571
---------------- Step   990000 ----- CPU =   2713.4895 (sec) ----------------
TotEng   =     -3326.7282 KinEng   =       640.9819 Temp     =       297.0112 
PotEng   =     -3967.7101 E_bond   =         1.5889 E_angle  =         0.9240 
E_dihed  =         0.0000 E_impro  =         0.0000 E_vdwl   =       790.6943 
E_coul   =     14670.2575 E_long   =    -19431.1748 Press    =       458.1555 
Volume   =     10888.8115 
SHAKE stats (type/ave/delta) on step 1000000
  2 0.999993 3.99028e-06
  2 109.47 0.000373837
---------------- Step  1000000 ----- CPU =   2742.1950 (sec) ----------------
TotEng   =     -3375.9810 KinEng   =       642.5020 Temp     =       297.7156 
PotEng   =     -4018.4830 E_bond   =         1.2666 E_angle  =         1.7192 
E_dihed  =         0.0000 E_impro  =         0.0000 E_vdwl   =       795.3596 
E_coul   =     14613.6175 E_long   =    -19430.4458 Press    =       433.6246 
Volume   =     10927.7735 
SHAKE stats (type/ave/delta) on step 1010000
  2 1.00009 5.02237e-06
  2 109.47 0.000559087
---------------- Step  1010000 ----- CPU =   2768.5291 (sec) ----------------
TotEng   =     -3427.6221 KinEng   =       650.2147 Temp     =       301.2894 
PotEng   =     -4077.8368 E_bond   =         0.7751 E_angle  =         2.9579 
E_dihed  =         0.0000 E_impro  =         0.0000 E_vdwl   =       838.1556 
E_coul   =     14509.5038 E_long   =    -19429.2292 Press    =       927.1622 
Volume   =     10740.0970 
SHAKE stats (type/ave/delta) on step 1020000
  2 0.999891 3.60106e-06
  2 109.47 0.000360334
---------------- Step  1020000 ----- CPU =   2794.4137 (sec) ----------------
TotEng   =     -3337.1267 KinEng   =       654.7812 Temp     =       303.4054 
PotEng   =     -3991.9078 E_bond   =         2.0715 E_angle  =         1.3161 
E_dihed  =         0.0000 E_impro  =         0.0000 E_vdwl   =       833.6381 
E_coul   =     14597.6706 E_long   =    -19426.6042 Press    =       783.0226 
Volume   =     11230.7270 
SHAKE stats (type/ave/delta) on step 1030000
  2 0.999948 9.08481e-06
  2 109.47 0.000559645
---------------- Step  1030000 ----- CPU =   2822.1180 (sec) ----------------
TotEng   =     -3348.6218 KinEng   =       642.0614 Temp     =       297.5114 
PotEng   =     -3990.6831 E_bond   =         1.8915 E_angle  =         1.1495 
E_dihed  =         0.0000 E_impro  =         0.0000 E_vdwl   =       753.9568 
E_coul   =     14677.9616 E_long   =    -19425.6425 Press    =      -314.6870 
Volume   =     11006.1505 
SHAKE stats (type/ave/delta) on step 1040000
  2 0.999839 4.45183e-06
  2 109.47 0.000410682
---------------- Step  1040000 ----- CPU =   2850.1959 (sec) ----------------
TotEng   =     -3326.5689 KinEng   =       641.5509 Temp     =       297.2749 
PotEng   =     -3968.1198 E_bond   =         1.8827 E_angle  =         1.5158 
E_dihed  =         0.0000 E_impro  =         0.0000 E_vdwl   =       771.2942 
E_coul   =     14686.2705 E_long   =    -19429.0829 Press    =       363.1709 
Volume   =     10934.0495 
SHAKE stats (type/ave/delta) on step 1050000
  2 0.999954 3.75471e-06
  2 109.47 0.000403939
---------------- Step  1050000 ----- CPU =   2878.5177 (sec) ----------------
TotEng   =     -3404.8653 KinEng   =       622.6777 Temp     =       288.5297 
PotEng   =     -4027.5430 E_bond   =         1.8341 E_angle  =         1.3378 
E_dihed  =         0.0000 E_impro  =         0.0000 E_vdwl   =       831.7634 
E_coul   =     14566.9329 E_long   =    -19429.4111 Press    =      1286.9750 
Volume   =     10750.0427 
SHAKE stats (type/ave/delta) on step 1060000
  2 0.999881 5.45392e-06
  2 109.47 0.000425583
---------------- Step  1060000 ----- CPU =   2906.0075 (sec) ----------------
TotEng   =     -3363.3564 KinEng   =       663.7715 Temp     =       307.5713 
PotEng   =     -4027.1279 E_bond   =         0.7370 E_angle  =         2.0970 
E_dihed  =         0.0000 E_impro  =         0.0000 E_vdwl   =       782.3655 
E_coul   =     14617.9904 E_long   =    -19430.3178 Press    =       162.1039 
Volume   =     10956.0047 
SHAKE stats (type/ave/delta) on step 1070000
  2 0.999975 4.60986e-06
  2 109.47 0.000509506
---------------- Step  1070000 ----- CPU =   2933.7311 (sec) ----------------
TotEng   =     -3327.9779 KinEng   =       654.9892 Temp     =       303.5018 
PotEng   =     -3982.9671 E_bond   =         1.9982 E_angle  =         1.2423 
E_dihed  =         0.0000 E_impro  =         0.0000 E_vdwl   =       776.9947 
E_coul   =     14668.0903 E_long   =    -19431.2925 Press    =        49.8233 
Volume   =     10994.0591 
SHAKE stats (type/ave/delta) on step 1080000
  2 1.00002 4.79947e-06
  2 109.47 0.000439966
---------------- Step  1080000 ----- CPU =   2961.6057 (sec) ----------------
TotEng   =     -3326.3442 KinEng   =       657.3608 Temp     =       304.6007 
PotEng   =     -3983.7050 E_bond   =         2.7729 E_angle  =         0.9153 
E_dihed  =         0.0000 E_impro  =         0.0000 E_vdwl   =       730.8423 
E_coul   =     14709.2665 E_long   =    -19427.5020 Press    =      -577.7722 
Volume   =     10958.5426 
SHAKE stats (type/ave/delta) on step 1090000
  2 0.99999 8.63163e-06
  2 109.47 0.000704846
---------------- Step  1090000 ----- CPU =   2990.1059 (sec) ----------------
TotEng   =     -3327.2273 KinEng   =       628.7442 Temp     =       291.3407 
PotEng   =     -3955.9716 E_bond   =         1.9650 E_angle  =         1.9426 
E_dihed  =         0.0000 E_impro  =         0.0000 E_vdwl   =       794.5082 
E_coul   =     14675.7131 E_long   =    -19430.1004 Press    =      1056.4906 
Volume   =     10718.6091 
SHAKE stats (type/ave/delta) on step 1100000
  2 0.999991 3.86445e-06
  2 109.47 0.000360105
---------------- Step  1100000 ----- CPU =   3018.1019 (sec) ----------------
TotEng   =     -3352.1468 KinEng   =       633.9341 Temp     =       293.7455 
PotEng   =     -3986.0810 E_bond   =         3.1921 E_angle  =         0.9017 
E_dihed  =         0.0000 E_impro  =         0.0000 E_vdwl   =       798.2931 
E_coul   =     14639.8278 E_long   =    -19428.2958 Press    =       611.3297 
Volume   =     10808.9557 
SHAKE stats (type/ave/delta) on step 1110000
  2 0.999874 4.86244e-06
  2 109.47 0.000398027
---------------- Step  1110000 ----- CPU =   3045.9736 (sec) ----------------
TotEng   =     -3324.4441 KinEng   =       633.3784 Temp     =       293.4880 
PotEng   =     -3957.8225 E_bond   =         2.2248 E_angle  =         0.6723 
E_dihed  =         0.0000 E_impro  =         0.0000 E_vdwl   =       738.4806 
E_coul   =     14728.7115 E_long   =    -19427.9117 Press    =      -273.9942 
Volume   =     10835.7313 
SHAKE stats (type/ave/delta) on step 1120000
  2 1.00008 1.73659e-05
  2 109.47 0.00107805
---------------- Step  1120000 ----- CPU =   3074.1852 (sec) ----------------
TotEng   =     -3287.0740 KinEng   =       666.3324 Temp     =       308.7579 
PotEng   =     -3953.4065 E_bond   =         1.6633 E_angle  =         0.4422 
E_dihed  =         0.0000 E_impro  =         0.0000 E_vdwl   =       711.7753 
E_coul   =     14761.4167 E_long   =    -19428.7041 Press    =     -1042.5197 
Volume   =     11115.2891 
SHAKE stats (type/ave/delta) on step 1130000
  2 0.999928 4.61035e-06
  2 109.47 0.000389609
---------------- Step  1130000 ----- CPU =   3101.2150 (sec) ----------------
TotEng   =     -3375.3943 KinEng   =       649.5389 Temp     =       300.9763 
PotEng   =     -4024.9332 E_bond   =         1.0994 E_angle  =         1.1907 
E_dihed  =         0.0000 E_impro  =         0.0000 E_vdwl   =       827.0543 
E_coul   =     14574.8004 E_long   =    -19429.0780 Press    =      1277.1406 
Volume   =     10706.6788 
SHAKE stats (type/ave/delta) on step 1140000
  2 0.999929 6.81755e-06
  2 109.47 0.000708936
---------------- Step  1140000 ----- CPU =   3127.6146 (sec) ----------------
TotEng   =     -3320.9619 KinEng   =       661.4326 Temp     =       306.4875 
PotEng   =     -3982.3944 E_bond   =         1.9643 E_angle  =         0.8674 
E_dihed  =         0.0000 E_impro  =         0.0000 E_vdwl   =       735.0508 
E_coul   =     14709.2745 E_long   =    -19429.5514 Press    =      -532.3792 
Volume   =     10862.7312 
SHAKE stats (type/ave/delta) on step 1150000
  2 0.999937 5.94077e-06
  2 109.47 0.000603515
---------------- Step  1150000 ----- CPU =   3154.2344 (sec) ----------------
TotEng   =     -3310.5901 KinEng   =       650.9026 Temp     =       301.6082 
PotEng   =     -3961.4927 E_bond   =         1.0144 E_angle  =         1.9177 
E_dihed  =         0.0000 E_impro  =         0.0000 E_vdwl   =       749.9611 
E_coul   =     14714.5901 E_long   =    -19428.9759 Press    =      -396.2362 
Volume   =     11053.5902 
SHAKE stats (type/ave/delta) on step 1160000
  2 0.999851 5.00109e-06
  2 109.47 0.00057887
---------------- Step  1160000 ----- CPU =   3182.9902 (sec) ----------------
TotEng   =     -3284.9500 KinEng   =       665.7459 Temp     =       308.4861 
PotEng   =     -3950.6959 E_bond   =         0.2662 E_angle  =         2.6995 
E_dihed  =         0.0000 E_impro  =         0.0000 E_vdwl   =       709.7540 
E_coul   =     14764.8229 E_long   =    -19428.2385 Press    =      -722.5501 
Volume   =     11012.9497 
SHAKE stats (type/ave/delta) on step 1170000
  2 1.00008 3.53673e-06
  2 109.47 0.000358847
---------------- Step  1170000 ----- CPU =   3211.2848 (sec) ----------------
TotEng   =     -3381.4283 KinEng   =       632.7273 Temp     =       293.1863 
PotEng   =     -4014.1556 E_bond   =         0.7424 E_angle  =         3.0541 
E_dihed  =         0.0000 E_impro  =         0.0000 E_vdwl   =       754.9452 
E_coul   =     14654.9941 E_long   =    -19427.8914 Press    =      -207.4227 
Volume   =     10880.7701 
SHAKE stats (type/ave/delta) on step 1180000
  2 0.999986 6.12066e-06
  2 109.47 0.000734592
---------------- Step  1180000 ----- CPU =   3240.0341 (sec) ----------------
TotEng   =     -3394.8223 KinEng   =       629.8793 Temp     =       291.8667 
PotEng   =     -4024.7016 E_bond   =         0.3555 E_angle  =         2.3049 
E_dihed  =         0.0000 E_impro  =         0.0000 E_vdwl   =       785.1482 
E_coul   =     14615.0228 E_long   =    -19427.5331 Press    =       -76.5689 
Volume   =     11005.9793 
SHAKE stats (type/ave/delta) on step 1190000
  2 0.999981 6.55337e-06
  2 109.47 0.0005378
---------------- Step  1190000 ----- CPU =   3267.4309 (sec) ----------------
TotEng   =     -3350.3158 KinEng   =       660.1893 Temp     =       305.9114 
PotEng   =     -4010.5052 E_bond   =         0.6957 E_angle  =         0.8450 
E_dihed  =         0.0000 E_impro  =         0.0000 E_vdwl   =       802.7074 
E_coul   =     14617.2623 E_long   =    -19432.0156 Press    =       765.7946 
Volume   =     10773.1199 
SHAKE stats (type/ave/delta) on step 1200000
  2 1.00001 3.4894e-06
  2 109.47 0.000366537
---------------- Step  1200000 ----- CPU =   3295.1320 (sec) ----------------
TotEng   =     -3433.4713 KinEng   =       621.0015 Temp     =       287.7529 
PotEng   =     -4054.4728 E_bond   =         0.5634 E_angle  =         2.5192 
E_dihed  =         0.0000 E_impro  =         0.0000 E_vdwl   =       831.6305 
E_coul   =     14541.2832 E_long   =    -19430.4691 Press    =       864.4275 
Volume   =     10870.8477 
SHAKE stats (type/ave/delta) on step 1210000
  2 0.999857 4.77598e-06
  2 109.47 0.000477428
---------------- Step  1210000 ----- CPU =   3323.1973 (sec) ----------------
TotEng   =     -3370.0889 KinEng   =       638.2166 Temp     =       295.7299 
PotEng   =     -4008.3056 E_bond   =         0.7798 E_angle  =         1.1056 
E_dihed  =         0.0000 E_impro  =         0.0000 E_vdwl   =       800.7578 
E_coul   =     14617.6002 E_long   =    -19428.5490 Press    =       139.5351 
Volume   =     11093.0442 
SHAKE stats (type/ave/delta) on step 1220000
  2 1.00008 6.91997e-06
  2 109.47 0.000500257
---------------- Step  1220000 ----- CPU =   3351.0864 (sec) ----------------
TotEng   =     -3361.7241 KinEng   =       638.7363 Temp     =       295.9707 
PotEng   =     -4000.4604 E_bond   =         1.6610 E_angle  =         1.5154 
E_dihed  =         0.0000 E_impro  =         0.0000 E_vdwl   =       788.8268 
E_coul   =     14635.3431 E_long   =    -19427.8067 Press    =       114.7443 
Volume   =     10951.0662 
SHAKE stats (type/ave/delta) on step 1230000
  2 0.999984 6.05753e-06
  2 109.47 0.000466653
---------------- Step  1230000 ----- CPU =   3380.7874 (sec) ----------------
TotEng   =     -3297.3599 KinEng   =       681.6266 Temp     =       315.8447 
PotEng   =     -3978.9865 E_bond   =         1.9082 E_angle  =         1.5124 
E_dihed  =         0.0000 E_impro  =         0.0000 E_vdwl   =       802.0777 
E_coul   =     14644.7224 E_long   =    -19429.2072 Press    =      1053.3492 
Volume   =     10750.0797 
SHAKE stats (type/ave/delta) on step 1240000
  2 0.999872 5.2738e-06
  2 109.47 0.000433674
---------------- Step  1240000 ----- CPU =   3409.2430 (sec) ----------------
TotEng   =     -3329.8871 KinEng   =       629.1482 Temp     =       291.5279 
PotEng   =     -3959.0354 E_bond   =         1.9424 E_angle  =         0.7965 
E_dihed  =         0.0000 E_impro  =         0.0000 E_vdwl   =       740.1399 
E_coul   =     14727.1497 E_long   =    -19429.0639 Press    =      -632.3247 
Volume   =     11238.2174 
SHAKE stats (type/ave/delta) on step 1250000
  2 1.00006 6.01082e-06
  2 109.47 0.000681895
---------------- Step  1250000 ----- CPU =   3438.6783 (sec) ----------------
TotEng   =     -3337.3638 KinEng   =       653.1237 Temp     =       302.6374 
PotEng   =     -3990.4875 E_bond   =         0.4184 E_angle  =         0.3601 
E_dihed  =         0.0000 E_impro  =         0.0000 E_vdwl   =       810.2191 
E_coul   =     14625.9755 E_long   =    -19427.4606 Press    =       581.2612 
Volume   =     11106.9300 
SHAKE stats (type/ave/delta) on step 1260000
  2 1.00006 4.63873e-06
  2 109.47 0.000343185
---------------- Step  1260000 ----- CPU =   3464.6504 (sec) ----------------
TotEng   =     -3337.9697 KinEng   =       631.0755 Temp     =       292.4210 
PotEng   =     -3969.0453 E_bond   =         1.1520 E_angle  =         1.1240 
E_dihed  =         0.0000 E_impro  =         0.0000 E_vdwl   =       749.6489 
E_coul   =     14709.4349 E_long   =    -19430.4051 Press    =      -662.1691 
Volume   =     11275.8428 
SHAKE stats (type/ave/delta) on step 1270000
  2 1.00006 5.3577e-06
  2 109.47 0.000417508
---------------- Step  1270000 ----- CPU =   3490.2236 (sec) ----------------
TotEng   =     -3359.5635 KinEng   =       676.8911 Temp     =       313.6505 
PotEng   =     -4036.4546 E_bond   =         0.8906 E_angle  =         0.7828 
E_dihed  =         0.0000 E_impro  =         0.0000 E_vdwl   =       763.8856 
E_coul   =     14627.3817 E_long   =    -19429.3953 Press    =      -228.6969 
Volume   =     10989.3122 
SHAKE stats (type/ave/delta) on step 1280000
  2 1 8.39578e-06
  2 109.47 0.000601778
---------------- Step  1280000 ----- CPU =   3516.9286 (sec) ----------------
TotEng   =     -3314.3249 KinEng   =       640.1513 Temp     =       296.6264 
PotEng   =     -3954.4762 E_bond   =         0.8197 E_angle  =         1.0628 
E_dihed  =         0.0000 E_impro  =         0.0000 E_vdwl   =       747.7199 
E_coul   =     14721.8797 E_long   =    -19425.9583 Press    =      -216.1599 
Volume   =     10901.8961 
SHAKE stats (type/ave/delta) on step 1290000
  2 1.00004 1.0176e-05
  2 109.47 0.000847711
---------------- Step  1290000 ----- CPU =   3544.5395 (sec) ----------------
TotEng   =     -3324.9821 KinEng   =       673.6241 Temp     =       312.1366 
PotEng   =     -3998.6062 E_bond   =         0.1382 E_angle  =         1.1694 
E_dihed  =         0.0000 E_impro  =         0.0000 E_vdwl   =       836.0140 
E_coul   =     14594.7823 E_long   =    -19430.7101 Press    =      1379.2151 
Volume   =     10971.2990 
SHAKE stats (type/ave/delta) on step 1300000
  2 0.999962 5.7491e-06
  2 109.47 0.000571616
---------------- Step  1300000 ----- CPU =   3572.1496 (sec) ----------------
TotEng   =     -3351.9469 KinEng   =       628.4841 Temp     =       291.2201 
PotEng   =     -3980.4309 E_bond   =         0.2533 E_angle  =         2.1477 
E_dihed  =         0.0000 E_impro  =         0.0000 E_vdwl   =       715.3748 
E_coul   =     14730.7509 E_long   =    -19428.9577 Press    =     -1177.0412 
Volume   =     11061.5648 
SHAKE stats (type/ave/delta) on step 1310000
  2 0.999993 4.66954e-06
  2 109.47 0.000373092
---------------- Step  1310000 ----- CPU =   3600.4248 (sec) ----------------
TotEng   =     -3248.9401 KinEng   =       663.0692 Temp     =       307.2458 
PotEng   =     -3912.0094 E_bond   =         0.2829 E_angle  =         2.5220 
E_dihed  =         0.0000 E_impro  =         0.0000 E_vdwl   =       738.5639 
E_coul   =     14774.3466 E_long   =    -19427.7247 Press    =       264.1131 
Volume   =     10897.4464 
SHAKE stats (type/ave/delta) on step 1320000
  2 0.999909 4.09959e-06
  2 109.47 0.000366278
---------------- Step  1320000 ----- CPU =   3628.0611 (sec) ----------------
TotEng   =     -3345.2724 KinEng   =       645.6437 Temp     =       299.1714 
PotEng   =     -3990.9161 E_bond   =         1.4097 E_angle  =         0.6571 
E_dihed  =         0.0000 E_impro  =         0.0000 E_vdwl   =       825.4113 
E_coul   =     14609.4923 E_long   =    -19427.8865 Press    =      1419.3168 
Volume   =     10837.2168 
SHAKE stats (type/ave/delta) on step 1330000
  2 0.999956 6.35583e-06
  2 109.47 0.000571137
---------------- Step  1330000 ----- CPU =   3655.6012 (sec) ----------------
TotEng   =     -3324.7228 KinEng   =       656.8397 Temp     =       304.3593 
PotEng   =     -3981.5625 E_bond   =         1.5692 E_angle  =         1.3846 
E_dihed  =         0.0000 E_impro  =         0.0000 E_vdwl   =       817.2556 
E_coul   =     14627.3948 E_long   =    -19429.1667 Press    =      1088.3436 
Volume   =     10963.9149 
SHAKE stats (type/ave/delta) on step 1340000
  2 0.999981 6.30528e-06
  2 109.47 0.000552815
---------------- Step  1340000 ----- CPU =   3683.2124 (sec) ----------------
[...]
E_coul   =     14623.2937 E_long   =    -19428.5539 Press    =       301.0001 
Volume   =     11156.5024 
SHAKE stats (type/ave/delta) on step 4650000
  2 1.0001 8.82222e-06
  2 109.47 0.000653247
---------------- Step  4650000 ----- CPU =  12914.0310 (sec) ----------------
TotEng   =     -3326.1995 KinEng   =       635.1470 Temp     =       294.3075 
PotEng   =     -3961.3465 E_bond   =         2.4382 E_angle  =         1.6765 
E_dihed  =         0.0000 E_impro  =         0.0000 E_vdwl   =       708.4955 
E_coul   =     14754.8765 E_long   =    -19428.8331 Press    =     -1241.6761 
Volume   =     10965.3073 
SHAKE stats (type/ave/delta) on step 4660000
  2 0.999871 4.30787e-06
  2 109.47 0.000350983
---------------- Step  4660000 ----- CPU =  12942.0196 (sec) ----------------
TotEng   =     -3350.8633 KinEng   =       666.1387 Temp     =       308.6681 
PotEng   =     -4017.0020 E_bond   =         0.2651 E_angle  =         2.0986 
E_dihed  =         0.0000 E_impro  =         0.0000 E_vdwl   =       726.8114 
E_coul   =     14681.8717 E_long   =    -19428.0489 Press    =     -1245.9104 
Volume   =     11081.6094 
SHAKE stats (type/ave/delta) on step 4670000
  2 1.0001 4.70199e-06
  2 109.47 0.000401192
---------------- Step  4670000 ----- CPU =  12972.5983 (sec) ----------------
TotEng   =     -3341.1395 KinEng   =       659.2038 Temp     =       305.4547 
PotEng   =     -4000.3433 E_bond   =         2.7987 E_angle  =         1.7039 
E_dihed  =         0.0000 E_impro  =         0.0000 E_vdwl   =       787.2143 
E_coul   =     14633.4573 E_long   =    -19425.5176 Press    =      -109.5338 
Volume   =     11134.7171 
SHAKE stats (type/ave/delta) on step 4680000
  2 1.00016 5.0061e-06
  2 109.47 0.000388059
---------------- Step  4680000 ----- CPU =  13000.8213 (sec) ----------------
TotEng   =     -3327.9589 KinEng   =       645.1793 Temp     =       298.9562 
PotEng   =     -3973.1382 E_bond   =         1.0297 E_angle  =         2.7098 
E_dihed  =         0.0000 E_impro  =         0.0000 E_vdwl   =       802.9179 
E_coul   =     14650.8983 E_long   =    -19430.6938 Press    =       598.0471 
Volume   =     11028.5149 
SHAKE stats (type/ave/delta) on step 4690000
  2 1.00013 8.02834e-06
  2 109.47 0.000649059
---------------- Step  4690000 ----- CPU =  13029.0135 (sec) ----------------
TotEng   =     -3329.8871 KinEng   =       629.0750 Temp     =       291.4940 
PotEng   =     -3958.9621 E_bond   =         3.0388 E_angle  =         1.7095 
E_dihed  =         0.0000 E_impro  =         0.0000 E_vdwl   =       761.9645 
E_coul   =     14703.2274 E_long   =    -19428.9024 Press    =      -180.4082 
Volume   =     11068.5788 
SHAKE stats (type/ave/delta) on step 4700000
  2 1.00002 8.03594e-06
  2 109.47 0.000547523
---------------- Step  4700000 ----- CPU =  13056.4477 (sec) ----------------
TotEng   =     -3293.9822 KinEng   =       669.0916 Temp     =       310.0364 
PotEng   =     -3963.0738 E_bond   =         0.5573 E_angle  =         1.0589 
E_dihed  =         0.0000 E_impro  =         0.0000 E_vdwl   =       731.1786 
E_coul   =     14732.3933 E_long   =    -19428.2620 Press    =      -748.5636 
Volume   =     11012.5779 
SHAKE stats (type/ave/delta) on step 4710000
  2 0.999945 3.95247e-06
  2 109.47 0.000362548
---------------- Step  4710000 ----- CPU =  13084.0657 (sec) ----------------
TotEng   =     -3319.4199 KinEng   =       660.7432 Temp     =       306.1680 
PotEng   =     -3980.1632 E_bond   =         0.8115 E_angle  =         2.3256 
E_dihed  =         0.0000 E_impro  =         0.0000 E_vdwl   =       778.3232 
E_coul   =     14665.3178 E_long   =    -19426.9412 Press    =       581.2183 
Volume   =     10706.5328 
SHAKE stats (type/ave/delta) on step 4720000
  2 0.999996 4.12414e-06
  2 109.47 0.000405102
---------------- Step  4720000 ----- CPU =  13112.3823 (sec) ----------------
TotEng   =     -3294.5097 KinEng   =       652.9285 Temp     =       302.5469 
PotEng   =     -3947.4382 E_bond   =         1.6635 E_angle  =         2.5910 
E_dihed  =         0.0000 E_impro  =         0.0000 E_vdwl   =       746.7574 
E_coul   =     14728.0037 E_long   =    -19426.4539 Press    =       186.4865 
Volume   =     10798.6170 
SHAKE stats (type/ave/delta) on step 4730000
  2 0.999937 5.01307e-06
  2 109.47 0.000477163
---------------- Step  4730000 ----- CPU =  13140.1188 (sec) ----------------
TotEng   =     -3405.0968 KinEng   =       640.1965 Temp     =       296.6473 
PotEng   =     -4045.2933 E_bond   =         0.8790 E_angle  =         1.4528 
E_dihed  =         0.0000 E_impro  =         0.0000 E_vdwl   =       754.8177 
E_coul   =     14626.0681 E_long   =    -19428.5108 Press    =     -1224.1768 
Volume   =     11175.7831 
SHAKE stats (type/ave/delta) on step 4740000
  2 1.00004 5.28649e-06
  2 109.47 0.000413986
---------------- Step  4740000 ----- CPU =  13167.5275 (sec) ----------------
TotEng   =     -3321.2337 KinEng   =       645.9400 Temp     =       299.3087 
PotEng   =     -3967.1737 E_bond   =         1.7773 E_angle  =         3.4794 
E_dihed  =         0.0000 E_impro  =         0.0000 E_vdwl   =       723.2473 
E_coul   =     14732.5868 E_long   =    -19428.2646 Press    =     -1028.6295 
Volume   =     11029.4633 
SHAKE stats (type/ave/delta) on step 4750000
  2 0.999898 4.2981e-06
  2 109.47 0.00035499
---------------- Step  4750000 ----- CPU =  13195.2224 (sec) ----------------
TotEng   =     -3384.6085 KinEng   =       630.9624 Temp     =       292.3685 
PotEng   =     -4015.5709 E_bond   =         2.0853 E_angle  =         2.3461 
E_dihed  =         0.0000 E_impro  =         0.0000 E_vdwl   =       732.8470 
E_coul   =     14674.3068 E_long   =    -19427.1561 Press    =     -1011.5997 
Volume   =     10792.3392 
SHAKE stats (type/ave/delta) on step 4760000
  2 1.00011 8.50347e-06
  2 109.47 0.000753054
---------------- Step  4760000 ----- CPU =  13220.9353 (sec) ----------------
TotEng   =     -3381.7161 KinEng   =       660.2588 Temp     =       305.9436 
PotEng   =     -4041.9749 E_bond   =         1.3626 E_angle  =         1.7398 
E_dihed  =         0.0000 E_impro  =         0.0000 E_vdwl   =       765.8902 
E_coul   =     14617.5784 E_long   =    -19428.5459 Press    =      -486.6518 
Volume   =     10794.2812 
SHAKE stats (type/ave/delta) on step 4770000
  2 1.00008 4.65231e-06
  2 109.47 0.000500704
---------------- Step  4770000 ----- CPU =  13247.4038 (sec) ----------------
TotEng   =     -3278.0962 KinEng   =       644.5525 Temp     =       298.6658 
PotEng   =     -3922.6487 E_bond   =         1.7586 E_angle  =         2.1909 
E_dihed  =         0.0000 E_impro  =         0.0000 E_vdwl   =       745.7268 
E_coul   =     14757.6177 E_long   =    -19429.9428 Press    =       421.4576 
Volume   =     10699.0932 
SHAKE stats (type/ave/delta) on step 4780000
  2 0.999825 9.64014e-06
  2 109.47 0.000936736
---------------- Step  4780000 ----- CPU =  13274.4061 (sec) ----------------
TotEng   =     -3324.8514 KinEng   =       669.7596 Temp     =       310.3460 
PotEng   =     -3994.6111 E_bond   =         1.6865 E_angle  =         3.9375 
E_dihed  =         0.0000 E_impro  =         0.0000 E_vdwl   =       751.1173 
E_coul   =     14676.8843 E_long   =    -19428.2366 Press    =      -668.0657 
Volume   =     10798.1924 
SHAKE stats (type/ave/delta) on step 4790000
  2 1.00005 1.2175e-05
  2 109.47 0.000810343
---------------- Step  4790000 ----- CPU =  13302.4630 (sec) ----------------
TotEng   =     -3359.0409 KinEng   =       672.4880 Temp     =       311.6102 
PotEng   =     -4031.5289 E_bond   =         2.4898 E_angle  =         0.7926 
E_dihed  =         0.0000 E_impro  =         0.0000 E_vdwl   =       752.8065 
E_coul   =     14640.5182 E_long   =    -19428.1361 Press    =      -783.2917 
Volume   =     11060.5090 
SHAKE stats (type/ave/delta) on step 4800000
  2 1.00013 1.06112e-05
  2 109.47 0.000754164
---------------- Step  4800000 ----- CPU =  13330.1117 (sec) ----------------
TotEng   =     -3418.4240 KinEng   =       629.0789 Temp     =       291.4958 
PotEng   =     -4047.5029 E_bond   =         0.9289 E_angle  =         2.2155 
E_dihed  =         0.0000 E_impro  =         0.0000 E_vdwl   =       775.8929 
E_coul   =     14603.3004 E_long   =    -19429.8406 Press    =      -584.2844 
Volume   =     10881.7659 
SHAKE stats (type/ave/delta) on step 4810000
  2 0.999964 1.32502e-05
  2 109.47 0.00122097
---------------- Step  4810000 ----- CPU =  13357.7653 (sec) ----------------
TotEng   =     -3363.2380 KinEng   =       631.3831 Temp     =       292.5635 
PotEng   =     -3994.6211 E_bond   =         0.3307 E_angle  =         3.1031 
E_dihed  =         0.0000 E_impro  =         0.0000 E_vdwl   =       789.5265 
E_coul   =     14640.1028 E_long   =    -19427.6842 Press    =       398.6687 
Volume   =     10893.5932 
SHAKE stats (type/ave/delta) on step 4820000
  2 1.00009 5.31603e-06
  2 109.47 0.000449544
---------------- Step  4820000 ----- CPU =  13385.7830 (sec) ----------------
TotEng   =     -3308.4405 KinEng   =       665.6580 Temp     =       308.4454 
PotEng   =     -3974.0986 E_bond   =         2.1385 E_angle  =         3.2015 
E_dihed  =         0.0000 E_impro  =         0.0000 E_vdwl   =       720.5227 
E_coul   =     14726.0489 E_long   =    -19426.0101 Press    =     -1007.4100 
Volume   =     10995.7268 
SHAKE stats (type/ave/delta) on step 4830000
  2 0.999958 3.87018e-06
  2 109.47 0.000386411
---------------- Step  4830000 ----- CPU =  13413.4856 (sec) ----------------
TotEng   =     -3316.9678 KinEng   =       627.1948 Temp     =       290.6228 
PotEng   =     -3944.1626 E_bond   =         1.5700 E_angle  =         1.7541 
E_dihed  =         0.0000 E_impro  =         0.0000 E_vdwl   =       779.8082 
E_coul   =     14700.7110 E_long   =    -19428.0059 Press    =       478.2342 
Volume   =     10994.4314 
SHAKE stats (type/ave/delta) on step 4840000
  2 1.00008 8.48194e-06
  2 109.47 0.00102327
---------------- Step  4840000 ----- CPU =  13440.2928 (sec) ----------------
TotEng   =     -3400.2483 KinEng   =       618.6477 Temp     =       286.6623 
PotEng   =     -4018.8959 E_bond   =         2.1949 E_angle  =         3.2901 
E_dihed  =         0.0000 E_impro  =         0.0000 E_vdwl   =       786.3415 
E_coul   =     14618.5311 E_long   =    -19429.2535 Press    =      -161.9941 
Volume   =     10932.1453 
SHAKE stats (type/ave/delta) on step 4850000
  2 0.999982 4.81168e-06
  2 109.47 0.000376962
---------------- Step  4850000 ----- CPU =  13467.3144 (sec) ----------------
TotEng   =     -3317.3596 KinEng   =       677.3948 Temp     =       313.8839 
PotEng   =     -3994.7544 E_bond   =         3.0607 E_angle  =         1.5794 
E_dihed  =         0.0000 E_impro  =         0.0000 E_vdwl   =       774.6039 
E_coul   =     14653.0020 E_long   =    -19427.0004 Press    =       285.7457 
Volume   =     10742.4626 
SHAKE stats (type/ave/delta) on step 4860000
  2 1.00004 3.90913e-06
  2 109.47 0.000378087
---------------- Step  4860000 ----- CPU =  13496.0481 (sec) ----------------
TotEng   =     -3324.6014 KinEng   =       663.6965 Temp     =       307.5365 
PotEng   =     -3988.2980 E_bond   =         0.1823 E_angle  =         1.8657 
E_dihed  =         0.0000 E_impro  =         0.0000 E_vdwl   =       732.5848 
E_coul   =     14707.2482 E_long   =    -19430.1790 Press    =      -720.8799 
Volume   =     10945.0684 
SHAKE stats (type/ave/delta) on step 4870000
  2 0.999983 7.48163e-06
  2 109.47 0.000710411
---------------- Step  4870000 ----- CPU =  13526.6302 (sec) ----------------
TotEng   =     -3333.2676 KinEng   =       670.5211 Temp     =       310.6988 
PotEng   =     -4003.7887 E_bond   =         2.2847 E_angle  =         1.2323 
E_dihed  =         0.0000 E_impro  =         0.0000 E_vdwl   =       795.0140 
E_coul   =     14625.6205 E_long   =    -19427.9403 Press    =       237.9347 
Volume   =     10967.5517 
SHAKE stats (type/ave/delta) on step 4880000
  2 1.00004 4.66534e-06
  2 109.47 0.000583605
---------------- Step  4880000 ----- CPU =  13555.7251 (sec) ----------------
TotEng   =     -3290.3006 KinEng   =       671.3354 Temp     =       311.0761 
PotEng   =     -3961.6360 E_bond   =         1.1197 E_angle  =         2.0919 
E_dihed  =         0.0000 E_impro  =         0.0000 E_vdwl   =       731.2771 
E_coul   =     14732.8041 E_long   =    -19428.9288 Press    =      -495.9426 
Volume   =     10781.2363 
SHAKE stats (type/ave/delta) on step 4890000
  2 1.00005 4.85937e-06
  2 109.47 0.000470326
---------------- Step  4890000 ----- CPU =  13582.5218 (sec) ----------------
TotEng   =     -3318.4507 KinEng   =       635.1940 Temp     =       294.3293 
PotEng   =     -3953.6447 E_bond   =         3.1610 E_angle  =         0.7172 
E_dihed  =         0.0000 E_impro  =         0.0000 E_vdwl   =       689.6690 
E_coul   =     14781.4740 E_long   =    -19428.6660 Press    =     -1630.3642 
Volume   =     11032.6177 
SHAKE stats (type/ave/delta) on step 4900000
  2 1.00007 6.87018e-06
  2 109.47 0.000548333
---------------- Step  4900000 ----- CPU =  13608.1158 (sec) ----------------
TotEng   =     -3331.1859 KinEng   =       652.9307 Temp     =       302.5479 
PotEng   =     -3984.1166 E_bond   =         1.9926 E_angle  =         1.0619 
E_dihed  =         0.0000 E_impro  =         0.0000 E_vdwl   =       809.3191 
E_coul   =     14633.1492 E_long   =    -19429.6393 Press    =      1071.3863 
Volume   =     10823.5206 
SHAKE stats (type/ave/delta) on step 4910000
  2 0.999998 3.94798e-06
  2 109.47 0.000399898
---------------- Step  4910000 ----- CPU =  13636.3050 (sec) ----------------
TotEng   =     -3343.7486 KinEng   =       662.1355 Temp     =       306.8132 
PotEng   =     -4005.8841 E_bond   =         0.6960 E_angle  =         2.1711 
E_dihed  =         0.0000 E_impro  =         0.0000 E_vdwl   =       756.3998 
E_coul   =     14664.7762 E_long   =    -19429.9272 Press    =      -315.0206 
Volume   =     10964.6504 
SHAKE stats (type/ave/delta) on step 4920000
  2 1 9.9352e-06
  2 109.47 0.000547455
---------------- Step  4920000 ----- CPU =  13663.2998 (sec) ----------------
TotEng   =     -3360.6556 KinEng   =       628.3057 Temp     =       291.1375 
PotEng   =     -3988.9613 E_bond   =         1.2977 E_angle  =         2.1242 
E_dihed  =         0.0000 E_impro  =         0.0000 E_vdwl   =       785.5506 
E_coul   =     14651.4213 E_long   =    -19429.3552 Press    =        15.2168 
Volume   =     11015.4503 
SHAKE stats (type/ave/delta) on step 4930000
  2 1.00015 6.03492e-06
  2 109.47 0.000500925
---------------- Step  4930000 ----- CPU =  13690.9631 (sec) ----------------
TotEng   =     -3354.3496 KinEng   =       666.2315 Temp     =       308.7111 
PotEng   =     -4020.5810 E_bond   =         0.8056 E_angle  =         2.2084 
E_dihed  =         0.0000 E_impro  =         0.0000 E_vdwl   =       738.0177 
E_coul   =     14666.1031 E_long   =    -19427.7159 Press    =      -783.3812 
Volume   =     10772.8877 
SHAKE stats (type/ave/delta) on step 4940000
  2 1.00005 8.47083e-06
  2 109.47 0.000731098
---------------- Step  4940000 ----- CPU =  13719.2194 (sec) ----------------
TotEng   =     -3331.3239 KinEng   =       654.2319 Temp     =       303.1509 
PotEng   =     -3985.5558 E_bond   =         1.1906 E_angle  =         2.4039 
E_dihed  =         0.0000 E_impro  =         0.0000 E_vdwl   =       816.4421 
E_coul   =     14621.4066 E_long   =    -19426.9989 Press    =       904.7168 
Volume   =     10884.8957 
SHAKE stats (type/ave/delta) on step 4950000
  2 0.999949 4.69308e-06
  2 109.47 0.000462793
---------------- Step  4950000 ----- CPU =  13747.7475 (sec) ----------------
TotEng   =     -3299.3792 KinEng   =       653.6273 Temp     =       302.8707 
PotEng   =     -3953.0064 E_bond   =         0.4070 E_angle  =         2.1894 
E_dihed  =         0.0000 E_impro  =         0.0000 E_vdwl   =       699.2001 
E_coul   =     14776.0584 E_long   =    -19430.8614 Press    =      -926.5625 
Volume   =     10853.4415 
SHAKE stats (type/ave/delta) on step 4960000
  2 1.00008 6.08371e-06
  2 109.47 0.000732589
---------------- Step  4960000 ----- CPU =  13776.1156 (sec) ----------------
TotEng   =     -3346.7168 KinEng   =       631.1778 Temp     =       292.4683 
PotEng   =     -3977.8947 E_bond   =         0.5076 E_angle  =         1.5250 
E_dihed  =         0.0000 E_impro  =         0.0000 E_vdwl   =       734.7379 
E_coul   =     14713.0821 E_long   =    -19427.7472 Press    =      -654.1840 
Volume   =     10936.3223 
SHAKE stats (type/ave/delta) on step 4970000
  2 0.999887 4.47697e-06
  2 109.47 0.000432642
---------------- Step  4970000 ----- CPU =  13803.5999 (sec) ----------------
TotEng   =     -3383.4286 KinEng   =       674.2574 Temp     =       312.4301 
PotEng   =     -4057.6861 E_bond   =         1.6278 E_angle  =         2.5618 
E_dihed  =         0.0000 E_impro  =         0.0000 E_vdwl   =       822.4439 
E_coul   =     14545.5055 E_long   =    -19429.8249 Press    =       532.0134 
Volume   =     10824.9178 
SHAKE stats (type/ave/delta) on step 4980000
  2 0.999953 7.15436e-06
  2 109.47 0.000581382
---------------- Step  4980000 ----- CPU =  13831.4829 (sec) ----------------
TotEng   =     -3357.1252 KinEng   =       619.4522 Temp     =       287.0351 
PotEng   =     -3976.5775 E_bond   =         0.2047 E_angle  =         0.7806 
E_dihed  =         0.0000 E_impro  =         0.0000 E_vdwl   =       809.0645 
E_coul   =     14641.2568 E_long   =    -19427.8841 Press    =       763.7368 
Volume   =     10918.9364 
SHAKE stats (type/ave/delta) on step 4990000
  2 0.999991 4.68672e-06
  2 109.47 0.000454587
---------------- Step  4990000 ----- CPU =  13858.7939 (sec) ----------------
TotEng   =     -3421.5914 KinEng   =       625.9438 Temp     =       290.0430 
PotEng   =     -4047.5352 E_bond   =         0.5044 E_angle  =         1.6562 
E_dihed  =         0.0000 E_impro  =         0.0000 E_vdwl   =       776.7240 
E_coul   =     14604.3780 E_long   =    -19430.7978 Press    =      -691.3802 
Volume   =     11067.4182 
SHAKE stats (type/ave/delta) on step 5000000
  2 1.00002 9.22562e-06
  2 109.47 0.000557716
---------------- Step  5000000 ----- CPU =  13886.1851 (sec) ----------------
TotEng   =     -3311.4065 KinEng   =       670.2161 Temp     =       310.5575 
PotEng   =     -3981.6226 E_bond   =         1.1471 E_angle  =         3.2995 
E_dihed  =         0.0000 E_impro  =         0.0000 E_vdwl   =       746.0573 
E_coul   =     14698.5415 E_long   =    -19430.6680 Press    =       -40.3044 
Volume   =     10694.1822 
Loop time of 13886.2 on 8 procs for 5000000 steps with 1085 atoms

Pair  time (%) = 7165.11 (51.5989)
Bond  time (%) = 3.41585 (0.0245989)
Kspce time (%) = 2540.06 (18.292)
Neigh time (%) = 965.6 (6.95367)
Comm  time (%) = 1410.09 (10.1546)
Outpt time (%) = 0.221799 (0.00159726)
Other time (%) = 1801.68 (12.9746)

FFT time (% of Kspce) = 335.712 (13.2167)
FFT Gflps 3d (1d only) = 3.83714 52.7436

Nlocal:    135.625 ave 144 max 127 min
Histogram: 1 1 1 0 0 2 0 2 0 1
Nghost:    4198.25 ave 4237 max 4166 min
Histogram: 2 1 0 1 0 0 2 1 0 1
Neighs:    49668.9 ave 58060 max 42855 min
Histogram: 1 1 0 2 1 0 1 1 0 1

Total # of neighbors = 397351
Ave neighs/atom = 366.222
Ave special neighs/atom = 2.00922
Neighbor list builds = 412464
Dangerous builds = 66198

write_restart restart.*.lmp
PPPM initialization ...
  G vector (1/distance) = 0.268211
  grid = 12 12 12
  stencil order = 5
  estimated absolute RMS force accuracy = 0.0254425
  estimated relative force accuracy = 7.66192e-05
  using double precision FFTs
  3d grid and FFT values/proc = 2197 288
write_data data.*.lmp
PPPM initialization ...
  G vector (1/distance) = 0.268211
  grid = 12 12 12
  stencil order = 5
  estimated absolute RMS force accuracy = 0.0254425
  estimated relative force accuracy = 7.66192e-05
  using double precision FFTs
  3d grid and FFT values/proc = 2197 288
