LAMMPS (11 Nov 2013)
# created by fftool

units real
boundary p p p

atom_style full
bond_style harmonic
angle_style harmonic
dihedral_style opls
special_bonds lj/coul 0.0 0.0 0.5

read_data data.0.lmp
  1 = max bonds/atom
  10 = max angles/atom
  12 = max dihedrals/atom
  orthogonal box = (-13.4438 -13.4438 -13.4438) to (13.4438 13.4438 13.4438)
  2 by 2 by 2 MPI processor grid
  1090 atoms
  729 bonds
  377 angles
  16 dihedrals
  5 = max # of 1-2 neighbors
  4 = max # of 1-3 neighbors
  8 = max # of 1-4 neighbors
  9 = max # of special neighbors
# read_restart restart.*.lmp
# reset_timestep 0

pair_style hybrid lj/cut/coul/long 10.0 10.0   lj/cut/coul/long/soft 1 0.5 10.0 10.0 10.0
pair_modify tail no
kspace_style pppm 1.0e-4

pair_coeff    1    1  none  # C-CO C-CO
pair_coeff    1    2  none  # C-CO C-D
pair_coeff    1    3  none  # C-CO H-D
pair_coeff    1    4  none  # C-CO H-H1
pair_coeff    1    5  none  # C-CO OHD-
pair_coeff    1    6  none  # C-CO HOD-
pair_coeff    1    7  lj/cut/coul/long    0.0000   1.0000  # C-CO Hw
pair_coeff    1    8  lj/cut/coul/long    0.1013   3.3286  # C-CO Ow
pair_coeff    2    2  none  # C-D C-D
pair_coeff    2    3  none  # C-D H-D
pair_coeff    2    4  none  # C-D H-H1
pair_coeff    2    5  none  # C-D OHD-
pair_coeff    2    6  none  # C-D HOD-
pair_coeff    2    7  lj/cut/coul/long/soft    0.0000   1.0000  1.0  # C-D Hw
pair_coeff    2    8  lj/cut/coul/long/soft    0.1013   3.3286  1.0  # C-D Ow
pair_coeff    3    3  none  # H-D H-D
pair_coeff    3    4  lj/cut/coul/long/soft    0.0300   2.5000  1.0  # H-D H-H1
pair_coeff    3    5  none  # H-D OHD-
pair_coeff    3    6  none  # H-D HOD-
pair_coeff    3    7  lj/cut/coul/long/soft    0.0000   1.0000  1.0  # H-D Hw
pair_coeff    3    8  lj/cut/coul/long/soft    0.0683   2.8131  1.0  # H-D Ow
pair_coeff    4    4  none  # H-H1 H-H1
pair_coeff    4    5  none  # H-H1 OHD-
pair_coeff    4    6  lj/cut/coul/long/soft    0.0000   1.0000  0.0 # H-H1 HOD-
pair_coeff    4    7  lj/cut/coul/long    0.0000   1.0000  # H-H1 Hw
pair_coeff    4    8  lj/cut/coul/long    0.0683   2.8131  # H-H1 Ow
pair_coeff    5    5  none  # OHD- OHD-
pair_coeff    5    6  none  # OHD- HOD-
pair_coeff    5    7  lj/cut/coul/long/soft    0.0000   1.0000  0.0  # OHD- Hw
pair_coeff    5    8  lj/cut/coul/long/soft    0.1625   3.1427  0.0  # OHD- Ow
pair_coeff    6    6  none  # HOD- HOD-
pair_coeff    6    7  lj/cut/coul/long/soft    0.0000   1.0000  0.0  # HOD- Hw
pair_coeff    6    8  lj/cut/coul/long/soft    0.0000   1.7792  0.0  # HOD- Ow
pair_coeff    7    7  lj/cut/coul/long    0.0000   1.0000  # Hw Hw
pair_coeff    7    8  lj/cut/coul/long    0.0000   1.0000  # Hw Ow
pair_coeff    8    8  lj/cut/coul/long    0.1554   3.1655  # Ow Ow

variable nsteps equal 2500000
variable nprint equal ${nsteps}/500
variable nprint equal 2500000/500
variable ndump equal ${nsteps}/100
variable ndump equal 2500000/100
# variable nrestart equal ${nsteps}/10

variable temp equal 300.0
variable press equal 1.0

neighbor 2.0 bin

timestep 2.0

# velocity all create ${temp} 12345

thermo_style multi
thermo ${nprint}
thermo 5000

fix fSHAKE all shake 0.0001 20 ${nprint} b 2 4 5 a 6
fix fSHAKE all shake 0.0001 20 5000 b 2 4 5 a 6
  1 = # of size 2 clusters
  0 = # of size 3 clusters
  2 = # of size 4 clusters
  360 = # of frozen angles

fix fNPT all npt temp ${temp} ${temp} 100 iso ${press} ${press} 500
fix fNPT all npt temp 300 ${temp} 100 iso ${press} ${press} 500
fix fNPT all npt temp 300 300 100 iso ${press} ${press} 500
fix fNPT all npt temp 300 300 100 iso 1 ${press} 500
fix fNPT all npt temp 300 300 100 iso 1 1 500

run 250000
PPPM initialization ...
  G vector (1/distance) = 0.270213
  grid = 15 15 15
  stencil order = 5
  estimated absolute RMS force accuracy = 0.0169033
  estimated relative force accuracy = 5.09037e-05
  using double precision FFTs
  3d grid and FFT values/proc = 2744 512
SHAKE stats (type/ave/delta) on step 0
  2 1.09 4.99625e-06
  4 0.945001 0
  5 1 1.58341e-05
  6 109.47 0.0012593
Memory usage per processor = 9.53747 Mbytes
---------------- Step        0 ----- CPU =      0.0000 (sec) ----------------
TotEng   =      -236.7999 KinEng   =         0.0000 Temp     =         0.0000 
PotEng   =      -236.7999 E_bond   =         0.0000 E_angle  =         0.3094 
E_dihed  =         0.0001 E_impro  =         0.0000 E_vdwl   =      -192.9285 
E_coul   =     19402.7702 E_long   =    -19446.9511 Press    =       406.6448 
Volume   =     19438.0383 
SHAKE stats (type/ave/delta) on step 5000
  2 1.09002 1.88652e-07
  4 0.945017 1.11022e-16
  5 1.00002 7.5027e-06
  6 109.47 0.000605716
---------------- Step     5000 ----- CPU =     13.3876 (sec) ----------------
TotEng   =     -3329.4020 KinEng   =       668.8162 Temp     =       308.7715 
PotEng   =     -3998.2182 E_bond   =         0.6560 E_angle  =         0.6876 
E_dihed  =         0.1921 E_impro  =         0.0000 E_vdwl   =       762.8239 
E_coul   =     14887.4371 E_long   =    -19650.0149 Press    =      -266.3436 
Volume   =     11070.5412 
SHAKE stats (type/ave/delta) on step 10000
  2 1.09 2.03614e-07
  4 0.944997 0
  5 0.999998 3.67878e-06
  6 109.47 0.000368998
---------------- Step    10000 ----- CPU =     27.5526 (sec) ----------------
TotEng   =     -3338.0512 KinEng   =       657.2942 Temp     =       303.4522 
PotEng   =     -3995.3454 E_bond   =         1.1957 E_angle  =         0.5646 
E_dihed  =         1.1543 E_impro  =         0.0000 E_vdwl   =       695.8693 
E_coul   =     14955.4315 E_long   =    -19649.5608 Press    =     -1133.7227 
Volume   =     10852.5093 
SHAKE stats (type/ave/delta) on step 15000
  2 1.09002 8.74147e-07
  4 0.945015 0
  5 1.00002 7.53763e-06
  6 109.47 0.000719878
---------------- Step    15000 ----- CPU =     41.3838 (sec) ----------------
TotEng   =     -3355.0683 KinEng   =       644.8247 Temp     =       297.6954 
PotEng   =     -3999.8930 E_bond   =         0.0112 E_angle  =         2.2050 
E_dihed  =         0.0885 E_impro  =         0.0000 E_vdwl   =       744.0030 
E_coul   =     14905.3339 E_long   =    -19651.5346 Press    =      -412.3518 
Volume   =     10967.7501 
SHAKE stats (type/ave/delta) on step 20000
  2 1.08991 1.14671e-06
  4 0.944924 5.55112e-16
  5 0.999921 5.53079e-06
  6 109.47 0.000464729
---------------- Step    20000 ----- CPU =     55.2659 (sec) ----------------
TotEng   =     -3323.6005 KinEng   =       667.1655 Temp     =       308.0094 
PotEng   =     -3990.7660 E_bond   =         0.4638 E_angle  =         3.0360 
E_dihed  =         1.1158 E_impro  =         0.0000 E_vdwl   =       753.4071 
E_coul   =     14901.5474 E_long   =    -19650.3362 Press    =      -152.1080 
Volume   =     10939.9242 
SHAKE stats (type/ave/delta) on step 25000
  2 1.09002 3.46079e-07
  4 0.94502 0
  5 1.00002 3.92959e-06
  6 109.47 0.000357799
---------------- Step    25000 ----- CPU =     69.1320 (sec) ----------------
TotEng   =     -3400.8492 KinEng   =       653.1481 Temp     =       301.5380 
PotEng   =     -4053.9973 E_bond   =         0.0765 E_angle  =         1.1034 
E_dihed  =         2.1173 E_impro  =         0.0000 E_vdwl   =       754.7374 
E_coul   =     14839.6671 E_long   =    -19651.6990 Press    =      -686.0974 
Volume   =     10943.1181 
SHAKE stats (type/ave/delta) on step 30000
  2 1.08995 1.58859e-06
  4 0.944959 0
  5 0.999958 5.28533e-06
  6 109.47 0.000482186
---------------- Step    30000 ----- CPU =     83.4244 (sec) ----------------
TotEng   =     -3326.6443 KinEng   =       666.1477 Temp     =       307.5395 
PotEng   =     -3992.7920 E_bond   =         0.1304 E_angle  =         4.1951 
E_dihed  =         1.6753 E_impro  =         0.0000 E_vdwl   =       765.3654 
E_coul   =     14884.9052 E_long   =    -19649.0635 Press    =      -320.6762 
Volume   =     11139.0340 
SHAKE stats (type/ave/delta) on step 35000
  2 1.09002 1.78235e-06
  4 0.945019 0
  5 1.00002 8.9064e-06
  6 109.47 0.000789419
---------------- Step    35000 ----- CPU =     97.5194 (sec) ----------------
TotEng   =     -3297.7620 KinEng   =       673.6980 Temp     =       311.0253 
PotEng   =     -3971.4600 E_bond   =         0.8471 E_angle  =         2.1768 
E_dihed  =         0.0894 E_impro  =         0.0000 E_vdwl   =       731.5289 
E_coul   =     14944.6770 E_long   =    -19650.7793 Press    =      -502.4334 
Volume   =     11076.9061 
SHAKE stats (type/ave/delta) on step 40000
  2 1.09003 1.26924e-06
  4 0.945028 0
  5 1.00003 1.47204e-05
  6 109.47 0.00114625
---------------- Step    40000 ----- CPU =    112.1284 (sec) ----------------
TotEng   =     -3303.3352 KinEng   =       676.0197 Temp     =       312.0972 
PotEng   =     -3979.3549 E_bond   =         0.0436 E_angle  =         4.2183 
E_dihed  =         2.9994 E_impro  =         0.0000 E_vdwl   =       733.6119 
E_coul   =     14930.1106 E_long   =    -19650.3388 Press    =      -578.3384 
Volume   =     11047.6607 
SHAKE stats (type/ave/delta) on step 45000
  2 1.09001 6.26693e-07
  4 0.945006 0
  5 1.00001 5.25906e-06
  6 109.47 0.000520095
---------------- Step    45000 ----- CPU =    126.5587 (sec) ----------------
TotEng   =     -3304.3671 KinEng   =       649.1222 Temp     =       299.6794 
PotEng   =     -3953.4893 E_bond   =         0.6637 E_angle  =         4.4704 
E_dihed  =         1.4889 E_impro  =         0.0000 E_vdwl   =       721.9330 
E_coul   =     14967.6276 E_long   =    -19649.6729 Press    =      -562.2744 
Volume   =     11029.3559 
SHAKE stats (type/ave/delta) on step 50000
  2 1.08998 1.05948e-05
  4 0.944986 0
  5 0.999986 1.33278e-05
  6 109.47 0.00114061
---------------- Step    50000 ----- CPU =    140.6440 (sec) ----------------
TotEng   =     -3312.1277 KinEng   =       675.6043 Temp     =       311.9054 
PotEng   =     -3987.7320 E_bond   =         0.9279 E_angle  =         1.9885 
E_dihed  =         0.2728 E_impro  =         0.0000 E_vdwl   =       774.2190 
E_coul   =     14884.8654 E_long   =    -19650.0055 Press    =       343.0839 
Volume   =     11049.2536 
SHAKE stats (type/ave/delta) on step 55000
  2 1.08998 1.81723e-07
  4 0.944983 0
  5 0.999983 4.02764e-06
  6 109.47 0.000381373
---------------- Step    55000 ----- CPU =    154.3770 (sec) ----------------
TotEng   =     -3405.6299 KinEng   =       643.1156 Temp     =       296.9064 
PotEng   =     -4048.7455 E_bond   =         0.3215 E_angle  =         2.8723 
E_dihed  =         0.7979 E_impro  =         0.0000 E_vdwl   =       786.0754 
E_coul   =     14807.6695 E_long   =    -19646.4821 Press    =       300.6264 
Volume   =     10693.8232 
SHAKE stats (type/ave/delta) on step 60000
  2 1.08994 1.11807e-06
  4 0.944946 0
  5 0.999944 6.34293e-06
  6 109.47 0.000482486
---------------- Step    60000 ----- CPU =    168.1864 (sec) ----------------
TotEng   =     -3403.4621 KinEng   =       656.6099 Temp     =       303.1363 
PotEng   =     -4060.0720 E_bond   =         0.7644 E_angle  =         6.4483 
E_dihed  =         0.1281 E_impro  =         0.0000 E_vdwl   =       730.5979 
E_coul   =     14850.1487 E_long   =    -19648.1594 Press    =     -1326.5799 
Volume   =     10861.1991 
SHAKE stats (type/ave/delta) on step 65000
  2 1.0901 2.0292e-06
  4 0.945082 0
  5 1.00009 4.9816e-06
  6 109.47 0.000444053
---------------- Step    65000 ----- CPU =    182.5359 (sec) ----------------
TotEng   =     -3352.2905 KinEng   =       664.5268 Temp     =       306.7913 
PotEng   =     -4016.8173 E_bond   =         0.1004 E_angle  =         6.0405 
E_dihed  =         1.7117 E_impro  =         0.0000 E_vdwl   =       799.6023 
E_coul   =     14826.6807 E_long   =    -19650.9529 Press    =       382.5095 
Volume   =     10978.6672 
SHAKE stats (type/ave/delta) on step 70000
  2 1.08994 3.30997e-07
  4 0.94495 0
  5 0.999948 5.20316e-06
  6 109.47 0.00041032
---------------- Step    70000 ----- CPU =    196.9025 (sec) ----------------
TotEng   =     -3346.2031 KinEng   =       632.0275 Temp     =       291.7874 
PotEng   =     -3978.2307 E_bond   =         0.7190 E_angle  =         7.8441 
E_dihed  =         0.9343 E_impro  =         0.0000 E_vdwl   =       832.8158 
E_coul   =     14828.0626 E_long   =    -19648.6064 Press    =      1377.4062 
Volume   =     10967.4799 
SHAKE stats (type/ave/delta) on step 75000
  2 1.08997 1.11843e-06
  4 0.944974 0
  5 0.999973 6.46982e-06
  6 109.47 0.000561426
---------------- Step    75000 ----- CPU =    211.1037 (sec) ----------------
TotEng   =     -3375.5149 KinEng   =       651.0587 Temp     =       300.5735 
PotEng   =     -4026.5736 E_bond   =         0.7324 E_angle  =         4.5549 
E_dihed  =         0.3556 E_impro  =         0.0000 E_vdwl   =       777.4752 
E_coul   =     14839.6107 E_long   =    -19649.3024 Press    =      -169.1232 
Volume   =     11046.7181 
SHAKE stats (type/ave/delta) on step 80000
  2 1.09003 1.55905e-06
  4 0.94503 0
  5 1.00003 1.00091e-05
  6 109.47 0.00123386
---------------- Step    80000 ----- CPU =    225.3558 (sec) ----------------
TotEng   =     -3390.1904 KinEng   =       641.6400 Temp     =       296.2251 
PotEng   =     -4031.8304 E_bond   =         0.1823 E_angle  =         5.3298 
E_dihed  =         0.3127 E_impro  =         0.0000 E_vdwl   =       783.4052 
E_coul   =     14830.6922 E_long   =    -19651.7525 Press    =       164.4978 
Volume   =     10824.6903 
SHAKE stats (type/ave/delta) on step 85000
  2 1.09007 2.08285e-06
  4 0.945057 0
  5 1.00006 7.79973e-06
  6 109.47 0.000814066
---------------- Step    85000 ----- CPU =    239.3239 (sec) ----------------
TotEng   =     -3339.4384 KinEng   =       637.0556 Temp     =       294.1087 
PotEng   =     -3976.4941 E_bond   =         0.2638 E_angle  =         6.7693 
E_dihed  =         1.8531 E_impro  =         0.0000 E_vdwl   =       737.7235 
E_coul   =     14928.4301 E_long   =    -19651.5338 Press    =      -458.3754 
Volume   =     10955.5653 
SHAKE stats (type/ave/delta) on step 90000
  2 1.09015 1.23839e-06
  4 0.945141 0
  5 1.00014 1.55069e-05
  6 109.47 0.00125161
---------------- Step    90000 ----- CPU =    253.5609 (sec) ----------------
TotEng   =     -3289.4824 KinEng   =       687.4961 Temp     =       317.3955 
PotEng   =     -3976.9785 E_bond   =         0.6402 E_angle  =         4.2373 
E_dihed  =         0.2454 E_impro  =         0.0000 E_vdwl   =       761.4551 
E_coul   =     14904.3831 E_long   =    -19647.9396 Press    =       439.9040 
Volume   =     10702.9545 
SHAKE stats (type/ave/delta) on step 95000
  2 1.08995 2.33126e-06
  4 0.944958 0
  5 0.999956 5.38984e-06
  6 109.47 0.000727539
---------------- Step    95000 ----- CPU =    267.6069 (sec) ----------------
TotEng   =     -3366.8314 KinEng   =       619.6494 Temp     =       286.0727 
PotEng   =     -3986.4808 E_bond   =         0.1195 E_angle  =         5.1707 
E_dihed  =         0.3213 E_impro  =         0.0000 E_vdwl   =       777.8304 
E_coul   =     14878.7924 E_long   =    -19648.7152 Press    =        75.4756 
Volume   =     11017.5955 
SHAKE stats (type/ave/delta) on step 100000
  2 1.09002 2.5552e-06
  4 0.945017 0
  5 1.00002 9.85104e-06
  6 109.47 0.000677927
---------------- Step   100000 ----- CPU =    282.1316 (sec) ----------------
TotEng   =     -3347.2113 KinEng   =       638.4597 Temp     =       294.7569 
PotEng   =     -3985.6710 E_bond   =         0.1907 E_angle  =         3.8699 
E_dihed  =         0.5415 E_impro  =         0.0000 E_vdwl   =       786.1456 
E_coul   =     14873.1907 E_long   =    -19649.6095 Press    =       542.5511 
Volume   =     10891.0239 
SHAKE stats (type/ave/delta) on step 105000
  2 1.08992 1.90256e-07
  4 0.944934 0
  5 0.999931 4.01214e-06
  6 109.47 0.000383316
---------------- Step   105000 ----- CPU =    296.2844 (sec) ----------------
TotEng   =     -3342.1705 KinEng   =       665.1911 Temp     =       307.0979 
PotEng   =     -4007.3615 E_bond   =         1.6214 E_angle  =         3.9188 
E_dihed  =         0.4793 E_impro  =         0.0000 E_vdwl   =       812.9954 
E_coul   =     14819.9449 E_long   =    -19646.3213 Press    =       972.7473 
Volume   =     10774.6255 
SHAKE stats (type/ave/delta) on step 110000
  2 1.09004 2.56317e-07
  4 0.945036 0
  5 1.00004 5.45692e-06
  6 109.47 0.00049246
---------------- Step   110000 ----- CPU =    310.4122 (sec) ----------------
TotEng   =     -3345.0873 KinEng   =       671.1425 Temp     =       309.8455 
PotEng   =     -4016.2297 E_bond   =         0.9017 E_angle  =         2.7858 
E_dihed  =         0.1913 E_impro  =         0.0000 E_vdwl   =       742.5671 
E_coul   =     14880.4990 E_long   =    -19643.1746 Press    =      -567.7694 
Volume   =     11015.3161 
SHAKE stats (type/ave/delta) on step 115000
  2 1.08998 1.44985e-06
  4 0.944985 0
  5 0.999985 4.54078e-06
  6 109.47 0.000524732
---------------- Step   115000 ----- CPU =    324.1643 (sec) ----------------
TotEng   =     -3314.5344 KinEng   =       629.3658 Temp     =       290.5585 
PotEng   =     -3943.9003 E_bond   =         0.3438 E_angle  =         4.3272 
E_dihed  =         0.1787 E_impro  =         0.0000 E_vdwl   =       768.0132 
E_coul   =     14933.1392 E_long   =    -19649.9024 Press    =       572.9761 
Volume   =     10787.1820 
SHAKE stats (type/ave/delta) on step 120000
  2 1.08987 2.44107e-06
  4 0.944891 0
  5 0.999886 5.74537e-06
  6 109.47 0.000537249
---------------- Step   120000 ----- CPU =    338.0529 (sec) ----------------
TotEng   =     -3273.2579 KinEng   =       695.1517 Temp     =       320.9298 
PotEng   =     -3968.4095 E_bond   =         0.1188 E_angle  =         2.9152 
E_dihed  =         0.4568 E_impro  =         0.0000 E_vdwl   =       760.6498 
E_coul   =     14916.8126 E_long   =    -19649.3627 Press    =       152.2565 
Volume   =     11088.1223 
SHAKE stats (type/ave/delta) on step 125000
  2 1.09005 2.62005e-06
  4 0.945043 0
  5 1.00005 8.89526e-06
  6 109.47 0.000782528
---------------- Step   125000 ----- CPU =    351.7064 (sec) ----------------
TotEng   =     -3357.4529 KinEng   =       617.6187 Temp     =       285.1353 
PotEng   =     -3975.0717 E_bond   =         1.2244 E_angle  =         2.5256 
E_dihed  =         0.5909 E_impro  =         0.0000 E_vdwl   =       728.3795 
E_coul   =     14944.5598 E_long   =    -19652.3518 Press    =     -1011.9332 
Volume   =     11072.2143 
SHAKE stats (type/ave/delta) on step 130000
  2 1.09001 7.02353e-07
  4 0.945012 0
  5 1.00001 5.03105e-06
  6 109.47 0.000434058
---------------- Step   130000 ----- CPU =    365.4085 (sec) ----------------
TotEng   =     -3330.1957 KinEng   =       673.4597 Temp     =       310.9153 
PotEng   =     -4003.6554 E_bond   =         0.2676 E_angle  =         5.5029 
E_dihed  =         0.1577 E_impro  =         0.0000 E_vdwl   =       823.1459 
E_coul   =     14816.0943 E_long   =    -19648.8239 Press    =      1250.9604 
Volume   =     10842.2464 
SHAKE stats (type/ave/delta) on step 135000
  2 1.09001 4.08332e-07
  4 0.945011 0
  5 1.00001 4.44922e-06
  6 109.47 0.000444651
---------------- Step   135000 ----- CPU =    379.8120 (sec) ----------------
TotEng   =     -3363.6945 KinEng   =       637.0354 Temp     =       294.0993 
PotEng   =     -4000.7299 E_bond   =         0.7266 E_angle  =         2.2873 
E_dihed  =         0.5448 E_impro  =         0.0000 E_vdwl   =       810.2587 
E_coul   =     14835.7102 E_long   =    -19650.2575 Press    =       972.6827 
Volume   =     10949.6488 
SHAKE stats (type/ave/delta) on step 140000
  2 1.09011 8.57841e-07
  4 0.945096 0
  5 1.0001 5.11795e-06
  6 109.47 0.000422499
---------------- Step   140000 ----- CPU =    393.9266 (sec) ----------------
TotEng   =     -3337.2582 KinEng   =       644.1550 Temp     =       297.3862 
PotEng   =     -3981.4132 E_bond   =         0.3375 E_angle  =         2.9838 
E_dihed  =         0.3700 E_impro  =         0.0000 E_vdwl   =       742.1679 
E_coul   =     14923.0258 E_long   =    -19650.2983 Press    =      -482.1533 
Volume   =     11189.3715 
SHAKE stats (type/ave/delta) on step 145000
  2 1.08991 7.10909e-07
  4 0.944925 0
  5 0.999921 5.31047e-06
  6 109.47 0.000404097
---------------- Step   145000 ----- CPU =    407.9970 (sec) ----------------
TotEng   =     -3348.3359 KinEng   =       642.4030 Temp     =       296.5774 
PotEng   =     -3990.7389 E_bond   =         0.7204 E_angle  =         3.6886 
E_dihed  =         0.4275 E_impro  =         0.0000 E_vdwl   =       708.4117 
E_coul   =     14944.0093 E_long   =    -19647.9965 Press    =     -1309.4007 
Volume   =     11190.6891 
SHAKE stats (type/ave/delta) on step 150000
  2 1.09007 3.07556e-06
  4 0.945062 0
  5 1.00007 1.03352e-05
  6 109.47 0.000730969
---------------- Step   150000 ----- CPU =    421.4606 (sec) ----------------
TotEng   =     -3370.2647 KinEng   =       642.3789 Temp     =       296.5663 
PotEng   =     -4012.6436 E_bond   =         0.1979 E_angle  =         4.7501 
E_dihed  =         0.4435 E_impro  =         0.0000 E_vdwl   =       777.3831 
E_coul   =     14855.2441 E_long   =    -19650.6624 Press    =      -188.7976 
Volume   =     11114.2076 
SHAKE stats (type/ave/delta) on step 155000
  2 1.0901 2.2078e-06
  4 0.945086 0
  5 1.00009 4.97559e-06
  6 109.47 0.000543654
---------------- Step   155000 ----- CPU =    435.3027 (sec) ----------------
TotEng   =     -3282.5877 KinEng   =       700.6744 Temp     =       323.4795 
PotEng   =     -3983.2621 E_bond   =         0.7349 E_angle  =         4.9854 
E_dihed  =         1.5244 E_impro  =         0.0000 E_vdwl   =       747.2707 
E_coul   =     14910.0092 E_long   =    -19647.7866 Press    =      -211.3977 
Volume   =     11095.4243 
SHAKE stats (type/ave/delta) on step 160000
  2 1.08998 7.32266e-06
  4 0.944985 0
  5 0.999978 1.36451e-05
  6 109.47 0.00150335
---------------- Step   160000 ----- CPU =    448.9040 (sec) ----------------
TotEng   =     -3325.4104 KinEng   =       657.7665 Temp     =       303.6702 
PotEng   =     -3983.1769 E_bond   =         0.1532 E_angle  =         2.7782 
E_dihed  =         0.2772 E_impro  =         0.0000 E_vdwl   =       774.7525 
E_coul   =     14887.2442 E_long   =    -19648.3822 Press    =       211.2838 
Volume   =     10993.5305 
SHAKE stats (type/ave/delta) on step 165000
  2 1.08998 4.06926e-06
  4 0.944987 0
  5 0.999987 5.55644e-06
  6 109.47 0.000638482
---------------- Step   165000 ----- CPU =    462.7710 (sec) ----------------
TotEng   =     -3364.4139 KinEng   =       665.2933 Temp     =       307.1451 
PotEng   =     -4029.7072 E_bond   =         0.6823 E_angle  =         6.8172 
E_dihed  =         0.7759 E_impro  =         0.0000 E_vdwl   =       789.2882 
E_coul   =     14822.6703 E_long   =    -19649.9411 Press    =       228.3229 
Volume   =     10915.7600 
SHAKE stats (type/ave/delta) on step 170000
  2 1.09002 3.02821e-06
  4 0.945023 0
  5 1.00002 7.70476e-06
  6 109.47 0.000869178
---------------- Step   170000 ----- CPU =    476.3176 (sec) ----------------
TotEng   =     -3295.9072 KinEng   =       630.1211 Temp     =       290.9072 
PotEng   =     -3926.0283 E_bond   =         0.2178 E_angle  =         5.1358 
E_dihed  =         0.5623 E_impro  =         0.0000 E_vdwl   =       702.2632 
E_coul   =     15016.6185 E_long   =    -19650.8258 Press    =     -1027.4542 
Volume   =     11244.6115 
SHAKE stats (type/ave/delta) on step 175000
  2 1.08999 1.04569e-06
  4 0.944989 0
  5 0.999989 4.86035e-06
  6 109.47 0.000434028
---------------- Step   175000 ----- CPU =    490.2977 (sec) ----------------
TotEng   =     -3390.4514 KinEng   =       641.3684 Temp     =       296.0997 
PotEng   =     -4031.8198 E_bond   =         1.7247 E_angle  =         5.3118 
E_dihed  =         0.7177 E_impro  =         0.0000 E_vdwl   =       856.8771 
E_coul   =     14755.7174 E_long   =    -19652.1685 Press    =      1431.6275 
Volume   =     10937.7143 
SHAKE stats (type/ave/delta) on step 180000
  2 1.09006 2.43318e-07
  4 0.945049 0
  5 1.00005 4.26032e-06
  6 109.47 0.000383628
---------------- Step   180000 ----- CPU =    504.5893 (sec) ----------------
TotEng   =     -3331.4308 KinEng   =       648.9228 Temp     =       299.5874 
PotEng   =     -3980.3536 E_bond   =         0.2534 E_angle  =         4.1543 
E_dihed  =         0.2804 E_impro  =         0.0000 E_vdwl   =       764.1688 
E_coul   =     14899.3163 E_long   =    -19648.5268 Press    =       295.0880 
Volume   =     10807.5421 
SHAKE stats (type/ave/delta) on step 185000
  2 1.08997 1.55307e-06
  4 0.944975 0
  5 0.999975 7.60097e-06
  6 109.47 0.000928246
---------------- Step   185000 ----- CPU =    518.7575 (sec) ----------------
TotEng   =     -3354.5866 KinEng   =       642.7148 Temp     =       296.7213 
PotEng   =     -3997.3014 E_bond   =         0.3821 E_angle  =         3.0391 
E_dihed  =         1.5072 E_impro  =         0.0000 E_vdwl   =       786.9071 
E_coul   =     14860.7765 E_long   =    -19649.9133 Press    =       135.8794 
Volume   =     11125.5102 
SHAKE stats (type/ave/delta) on step 190000
  2 1.09008 1.5035e-06
  4 0.945065 0
  5 1.00007 7.79605e-06
  6 109.47 0.000744491
---------------- Step   190000 ----- CPU =    532.5956 (sec) ----------------
TotEng   =     -3359.3202 KinEng   =       639.8577 Temp     =       295.4023 
PotEng   =     -3999.1778 E_bond   =         0.3782 E_angle  =         2.6374 
E_dihed  =         1.2410 E_impro  =         0.0000 E_vdwl   =       743.6076 
E_coul   =     14902.5024 E_long   =    -19649.5445 Press    =      -421.5159 
Volume   =     10956.9466 
SHAKE stats (type/ave/delta) on step 195000
  2 1.09 2.27314e-06
  4 0.945001 0
  5 1 8.30942e-06
  6 109.47 0.000519371
---------------- Step   195000 ----- CPU =    546.3375 (sec) ----------------
TotEng   =     -3343.1973 KinEng   =       639.0849 Temp     =       295.0455 
PotEng   =     -3982.2822 E_bond   =         0.2902 E_angle  =         2.4499 
E_dihed  =         0.6584 E_impro  =         0.0000 E_vdwl   =       747.5511 
E_coul   =     14916.5212 E_long   =    -19649.7530 Press    =      -521.3888 
Volume   =     11053.8694 
SHAKE stats (type/ave/delta) on step 200000
  2 1.08999 2.66266e-06
  4 0.944993 0
  5 0.999993 1.23341e-05
  6 109.47 0.00115295
---------------- Step   200000 ----- CPU =    560.1288 (sec) ----------------
TotEng   =     -3296.3101 KinEng   =       674.7992 Temp     =       311.5337 
PotEng   =     -3971.1093 E_bond   =         2.0615 E_angle  =         2.7525 
E_dihed  =         0.5768 E_impro  =         0.0000 E_vdwl   =       777.5302 
E_coul   =     14894.7604 E_long   =    -19648.7907 Press    =       324.9607 
Volume   =     10989.9796 
SHAKE stats (type/ave/delta) on step 205000
  2 1.08992 1.84334e-06
  4 0.944929 0
  5 0.999925 6.48964e-06
  6 109.47 0.000473632
---------------- Step   205000 ----- CPU =    573.9158 (sec) ----------------
TotEng   =     -3340.4846 KinEng   =       644.8090 Temp     =       297.6882 
PotEng   =     -3985.2937 E_bond   =         0.4740 E_angle  =         4.7809 
E_dihed  =         0.1682 E_impro  =         0.0000 E_vdwl   =       731.6626 
E_coul   =     14926.5644 E_long   =    -19648.9437 Press    =      -918.3083 
Volume   =     11070.2234 
SHAKE stats (type/ave/delta) on step 210000
  2 1.09007 1.20779e-06
  4 0.945057 0
  5 1.00006 8.60072e-06
  6 109.47 0.000557613
---------------- Step   210000 ----- CPU =    587.8755 (sec) ----------------
TotEng   =     -3316.1322 KinEng   =       642.1276 Temp     =       296.4502 
PotEng   =     -3958.2598 E_bond   =         0.1961 E_angle  =         5.0822 
E_dihed  =         0.3652 E_impro  =         0.0000 E_vdwl   =       724.8582 
E_coul   =     14960.4089 E_long   =    -19649.1704 Press    =      -773.9114 
Volume   =     11134.9409 
SHAKE stats (type/ave/delta) on step 215000
  2 1.08999 2.29514e-06
  4 0.944994 0
  5 0.999994 1.0241e-05
  6 109.47 0.00101298
---------------- Step   215000 ----- CPU =    601.6510 (sec) ----------------
TotEng   =     -3300.9811 KinEng   =       656.0722 Temp     =       302.8880 
PotEng   =     -3957.0533 E_bond   =         0.6895 E_angle  =         4.2681 
E_dihed  =         0.8383 E_impro  =         0.0000 E_vdwl   =       712.6716 
E_coul   =     14975.0425 E_long   =    -19650.5633 Press    =      -579.7389 
Volume   =     11053.1629 
SHAKE stats (type/ave/delta) on step 220000
  2 1.09003 5.07627e-07
  4 0.945023 0
  5 1.00003 4.14128e-06
  6 109.47 0.000438383
---------------- Step   220000 ----- CPU =    615.5930 (sec) ----------------
TotEng   =     -3388.5304 KinEng   =       625.9545 Temp     =       288.9836 
PotEng   =     -4014.4849 E_bond   =         0.2072 E_angle  =         2.7761 
E_dihed  =         1.2751 E_impro  =         0.0000 E_vdwl   =       742.8499 
E_coul   =     14888.1238 E_long   =    -19649.7168 Press    =      -836.8201 
Volume   =     10991.1238 
SHAKE stats (type/ave/delta) on step 225000
  2 1.09015 6.45613e-07
  4 0.94513 0
  5 1.00014 5.17889e-06
  6 109.47 0.000484222
---------------- Step   225000 ----- CPU =    628.6893 (sec) ----------------
TotEng   =     -3341.3622 KinEng   =       609.7515 Temp     =       281.5032 
PotEng   =     -3951.1137 E_bond   =         0.0644 E_angle  =         4.1736 
E_dihed  =         0.1078 E_impro  =         0.0000 E_vdwl   =       718.6000 
E_coul   =     14975.4459 E_long   =    -19649.5054 Press    =      -390.3812 
Volume   =     10957.2794 
SHAKE stats (type/ave/delta) on step 230000
  2 1.08993 4.70729e-07
  4 0.944935 0
  5 0.999933 4.1223e-06
  6 109.47 0.00040649
---------------- Step   230000 ----- CPU =    641.6470 (sec) ----------------
TotEng   =     -3311.6026 KinEng   =       642.2853 Temp     =       296.5231 
PotEng   =     -3953.8879 E_bond   =         0.4440 E_angle  =         1.9964 
E_dihed  =         0.3674 E_impro  =         0.0000 E_vdwl   =       806.2588 
E_coul   =     14887.3222 E_long   =    -19650.2768 Press    =       821.3161 
Volume   =     11128.6232 
SHAKE stats (type/ave/delta) on step 235000
  2 1.08993 6.3389e-07
  4 0.944941 0
  5 0.999938 6.32547e-06
  6 109.47 0.00051401
---------------- Step   235000 ----- CPU =    654.9337 (sec) ----------------
TotEng   =     -3339.1675 KinEng   =       657.5262 Temp     =       303.5593 
PotEng   =     -3996.6937 E_bond   =         0.0720 E_angle  =         2.4362 
E_dihed  =         0.8178 E_impro  =         0.0000 E_vdwl   =       765.8186 
E_coul   =     14883.3096 E_long   =    -19649.1478 Press    =       181.6303 
Volume   =     10869.6264 
SHAKE stats (type/ave/delta) on step 240000
  2 1.09007 2.06165e-06
  4 0.945063 0
  5 1.00007 6.36741e-06
  6 109.47 0.000613765
---------------- Step   240000 ----- CPU =    668.7742 (sec) ----------------
TotEng   =     -3382.6862 KinEng   =       639.3156 Temp     =       295.1520 
PotEng   =     -4022.0018 E_bond   =         0.2172 E_angle  =         2.2470 
E_dihed  =         1.2526 E_impro  =         0.0000 E_vdwl   =       715.8989 
E_coul   =     14905.8435 E_long   =    -19647.4611 Press    =     -1275.5402 
Volume   =     11122.6618 
SHAKE stats (type/ave/delta) on step 245000
  2 1.08995 1.4805e-06
  4 0.944954 0
  5 0.999953 4.90875e-06
  6 109.47 0.000437916
---------------- Step   245000 ----- CPU =    682.4354 (sec) ----------------
TotEng   =     -3328.4127 KinEng   =       656.4786 Temp     =       303.0756 
PotEng   =     -3984.8913 E_bond   =         0.3547 E_angle  =         3.2631 
E_dihed  =         0.1987 E_impro  =         0.0000 E_vdwl   =       772.4276 
E_coul   =     14888.0933 E_long   =    -19649.2287 Press    =       172.6174 
Volume   =     11030.7467 
SHAKE stats (type/ave/delta) on step 250000
  2 1.09006 5.9031e-06
  4 0.945049 0
  5 1.00005 1.04021e-05
  6 109.47 0.000867356
---------------- Step   250000 ----- CPU =    696.2797 (sec) ----------------
TotEng   =     -3350.0882 KinEng   =       629.9435 Temp     =       290.8252 
PotEng   =     -3980.0317 E_bond   =         0.3799 E_angle  =         4.0568 
E_dihed  =         1.4093 E_impro  =         0.0000 E_vdwl   =       751.8039 
E_coul   =     14911.6869 E_long   =    -19649.3685 Press    =      -341.4473 
Volume   =     11127.1908 
Loop time of 696.28 on 8 procs for 250000 steps with 1090 atoms

Pair  time (%) = 332.383 (47.7371)
Bond  time (%) = 0.933198 (0.134026)
Kspce time (%) = 132.885 (19.0851)
Neigh time (%) = 48.5077 (6.9667)
Comm  time (%) = 60.3348 (8.6653)
Outpt time (%) = 0.00277522 (0.000398579)
Other time (%) = 121.233 (17.4115)

FFT time (% of Kspce) = 24.4134 (18.3718)
FFT Gflps 3d (1d only) = 5.61556 34.6392

Nlocal:    136.25 ave 141 max 132 min
Histogram: 1 1 1 1 0 0 2 1 0 1
Nghost:    4127.38 ave 4162 max 4089 min
Histogram: 1 0 1 0 1 1 2 0 1 1
Neighs:    48319.8 ave 52833 max 43021 min
Histogram: 1 1 1 0 0 0 1 2 1 1

Total # of neighbors = 386558
Ave neighs/atom = 354.64
Ave special neighs/atom = 2.05872
Neighbor list builds = 20650
Dangerous builds = 3385
reset_timestep 0


variable lambda equal ramp(0.0,1.0)
variable minusl equal 1.0-v_lambda
variable q1 equal  0.145*v_lambda-0.180*(1.0-v_lambda)
variable q2 equal -0.180*(1.0-v_lambda)
variable q3 equal  0.060*(1.0-v_lambda)
variable q4 equal  0.040*v_lambda+0.060*(1.0-v_lambda)
variable q5 equal -0.683*v_lambda
variable q6 equal  0.418*v_lambda

fix fADAPT all adapt 125000     pair lj/cut/coul/long/soft lambda 2*3 7*8 v_minusl     pair lj/cut/coul/long/soft lambda 3 4 v_minusl     pair lj/cut/coul/long/soft lambda 4 6 v_lambda     pair lj/cut/coul/long/soft lambda 5*6 7*8 v_lambda     atom charge 1 v_q1     atom charge 2 v_q2     atom charge 3 v_q3     atom charge 4 v_q4     atom charge 5 v_q5     atom charge 6 v_q6     after yes

variable dlambda equal 0.002
variable minusdl equal -0.002
variable dq1 equal  0.145*v_dlambda+0.180*v_dlambda
variable dq2 equal  0.180*v_dlambda
variable dq3 equal -0.060*v_dlambda
variable dq4 equal  0.040*v_dlambda-0.060*v_dlambda
variable dq5 equal -0.683*v_dlambda
variable dq6 equal  0.418*v_dlambda

compute cFEP all fep ${temp}     pair lj/cut/coul/long/soft lambda 2*3 7*8 v_minusdl     pair lj/cut/coul/long/soft lambda 3 4 v_minusdl     pair lj/cut/coul/long/soft lambda 4 6 v_dlambda     pair lj/cut/coul/long/soft lambda 5*6 7*8 v_dlambda     atom charge 1 v_dq1     atom charge 2 v_dq2     atom charge 3 v_dq3     atom charge 4 v_dq4     atom charge 5 v_dq5     atom charge 6 v_dq6
compute cFEP all fep 300     pair lj/cut/coul/long/soft lambda 2*3 7*8 v_minusdl     pair lj/cut/coul/long/soft lambda 3 4 v_minusdl     pair lj/cut/coul/long/soft lambda 4 6 v_dlambda     pair lj/cut/coul/long/soft lambda 5*6 7*8 v_dlambda     atom charge 1 v_dq1     atom charge 2 v_dq2     atom charge 3 v_dq3     atom charge 4 v_dq4     atom charge 5 v_dq5     atom charge 6 v_dq6

fix fFEP all ave/time 25 4000 125000 c_cFEP[1] c_cFEP[2] file fdti01.lmp

# compute cRDF all rdf 100 1 1
# fix fRDF all ave/time 20 100 ${nsteps} c_cRDF file rdf.lammps mode vector

compute cMSD all msd
fix fMSD all ave/time 1 1 ${ndump} c_cMSD[1] c_cMSD[2] c_cMSD[3] c_cMSD[4] file msd.lammps
fix fMSD all ave/time 1 1 25000 c_cMSD[1] c_cMSD[2] c_cMSD[3] c_cMSD[4] file msd.lammps

dump dCONF all custom ${ndump} dump.lammpstrj id mol type element x y z ix iy iz
dump dCONF all custom 25000 dump.lammpstrj id mol type element x y z ix iy iz
dump_modify dCONF element C C H H O H H O

# restart ${nrestart} restart.*.lmp

run ${nsteps}
run 2500000
PPPM initialization ...
  G vector (1/distance) = 0.267099
  grid = 12 12 12
  stencil order = 5
  estimated absolute RMS force accuracy = 0.0264126
  estimated relative force accuracy = 7.95407e-05
  using double precision FFTs
  3d grid and FFT values/proc = 2197 288
FEP settings ...
  temperature = 300.000000
  tail no
  lj/cut/coul/long/soft lambda 2-3 7-8
  lj/cut/coul/long/soft lambda 3-3 4-4
  lj/cut/coul/long/soft lambda 4-4 6-6
  lj/cut/coul/long/soft lambda 5-6 7-8
  1-1 charge
  2-2 charge
  3-3 charge
  4-4 charge
  5-5 charge
  6-6 charge
SHAKE stats (type/ave/delta) on step 0
  2 1.09006 5.9031e-06
  4 0.945049 0
  5 1.00005 1.04021e-05
  6 109.47 0.000867356
Memory usage per processor = 10.9645 Mbytes
---------------- Step        0 ----- CPU =      0.0000 (sec) ----------------
TotEng   =     -3349.9815 KinEng   =       629.9435 Temp     =       290.8252 
PotEng   =     -3979.9250 E_bond   =         0.3799 E_angle  =         4.0568 
E_dihed  =         1.4093 E_impro  =         0.0000 E_vdwl   =       751.8039 
E_coul   =     14685.6413 E_long   =    -19423.2161 Press    =      -343.1067 
Volume   =     11127.1908 
SHAKE stats (type/ave/delta) on step 5000
  2 1.08991 7.5327e-07
  4 0.944922 0
  5 0.999919 5.34098e-06
  6 109.47 0.000593889
---------------- Step     5000 ----- CPU =     12.6199 (sec) ----------------
TotEng   =     -3367.0094 KinEng   =       658.1186 Temp     =       303.8328 
PotEng   =     -4025.1279 E_bond   =         0.3682 E_angle  =         2.5047 
E_dihed  =         0.6767 E_impro  =         0.0000 E_vdwl   =       751.4991 
E_coul   =     14646.3794 E_long   =    -19426.5560 Press    =      -324.1128 
Volume   =     10884.9370 
SHAKE stats (type/ave/delta) on step 10000
  2 1.08999 3.6602e-07
  4 0.94499 9.99201e-16
  5 0.99999 4.42136e-06
  6 109.47 0.000419496
---------------- Step    10000 ----- CPU =     25.0603 (sec) ----------------
TotEng   =     -3304.7302 KinEng   =       669.1837 Temp     =       308.9412 
PotEng   =     -3973.9139 E_bond   =         0.5112 E_angle  =         4.2009 
E_dihed  =         0.1893 E_impro  =         0.0000 E_vdwl   =       769.4051 
E_coul   =     14673.6410 E_long   =    -19421.8614 Press    =       -21.8893 
Volume   =     11213.1347 
SHAKE stats (type/ave/delta) on step 15000
  2 1.09003 6.55285e-06
  4 0.945025 0
  5 1.00003 1.46379e-05
  6 109.47 0.0011569
---------------- Step    15000 ----- CPU =     37.5734 (sec) ----------------
TotEng   =     -3377.9439 KinEng   =       657.0820 Temp     =       303.3542 
PotEng   =     -4035.0260 E_bond   =         0.2575 E_angle  =         2.6867 
E_dihed  =         1.5389 E_impro  =         0.0000 E_vdwl   =       713.1342 
E_coul   =     14670.9711 E_long   =    -19423.6143 Press    =     -1251.2358 
Volume   =     10857.8825 
SHAKE stats (type/ave/delta) on step 20000
  2 1.09016 1.66282e-07
  4 0.94514 0
  5 1.00015 3.86277e-06
  6 109.47 0.000394832
---------------- Step    20000 ----- CPU =     50.0175 (sec) ----------------
TotEng   =     -3309.5894 KinEng   =       655.1364 Temp     =       302.4560 
PotEng   =     -3964.7258 E_bond   =         0.6983 E_angle  =         2.5896 
E_dihed  =         0.4510 E_impro  =         0.0000 E_vdwl   =       776.7621 
E_coul   =     14677.9050 E_long   =    -19423.1317 Press    =       712.2255 
Volume   =     10813.9634 
SHAKE stats (type/ave/delta) on step 25000
  2 1.08988 7.93707e-08
  4 0.944898 0
  5 0.999893 4.16719e-06
  6 109.47 0.00036787
---------------- Step    25000 ----- CPU =     62.5043 (sec) ----------------
TotEng   =     -3320.8625 KinEng   =       617.6993 Temp     =       285.1724 
PotEng   =     -3938.5618 E_bond   =         1.3638 E_angle  =         3.7712 
E_dihed  =         1.2324 E_impro  =         0.0000 E_vdwl   =       776.2210 
E_coul   =     14702.3542 E_long   =    -19423.5044 Press    =       611.0249 
Volume   =     11020.3734 
SHAKE stats (type/ave/delta) on step 30000
  2 1.09 1.32126e-06
  4 0.944999 0
  5 1 9.88385e-06
  6 109.47 0.00103492
---------------- Step    30000 ----- CPU =     75.9747 (sec) ----------------
TotEng   =     -3369.1702 KinEng   =       638.4798 Temp     =       294.7662 
PotEng   =     -4007.6500 E_bond   =         0.0932 E_angle  =         4.5196 
E_dihed  =         0.8099 E_impro  =         0.0000 E_vdwl   =       818.0536 
E_coul   =     14593.6983 E_long   =    -19424.8246 Press    =      1205.5251 
Volume   =     10827.5407 
SHAKE stats (type/ave/delta) on step 35000
  2 1.08998 1.19804e-06
  4 0.944979 0
  5 0.999979 8.97123e-06
  6 109.47 0.00076058
---------------- Step    35000 ----- CPU =     89.7210 (sec) ----------------
TotEng   =     -3379.7162 KinEng   =       655.2712 Temp     =       302.5182 
PotEng   =     -4034.9874 E_bond   =         1.6378 E_angle  =         3.8656 
E_dihed  =         2.1845 E_impro  =         0.0000 E_vdwl   =       747.3162 
E_coul   =     14634.1493 E_long   =    -19424.1408 Press    =      -981.4141 
Volume   =     11080.3273 
SHAKE stats (type/ave/delta) on step 40000
  2 1.08987 2.64143e-06
  4 0.944884 0
  5 0.999878 8.6399e-06
  6 109.47 0.000867962
---------------- Step    40000 ----- CPU =    103.4059 (sec) ----------------
TotEng   =     -3301.4324 KinEng   =       679.4211 Temp     =       313.6675 
PotEng   =     -3980.8536 E_bond   =         0.0007 E_angle  =         2.7551 
E_dihed  =         1.3061 E_impro  =         0.0000 E_vdwl   =       857.1750 
E_coul   =     14580.5319 E_long   =    -19422.6223 Press    =      1780.1079 
Volume   =     11086.3104 
SHAKE stats (type/ave/delta) on step 45000
  2 1.08977 9.47121e-07
  4 0.944799 0
  5 0.999789 5.32752e-06
  6 109.47 0.000413831
---------------- Step    45000 ----- CPU =    117.4461 (sec) ----------------
TotEng   =     -3346.3883 KinEng   =       639.6528 Temp     =       295.3077 
PotEng   =     -3986.0411 E_bond   =         0.2229 E_angle  =         9.9131 
E_dihed  =         0.8806 E_impro  =         0.0000 E_vdwl   =       816.8732 
E_coul   =     14610.1287 E_long   =    -19424.0597 Press    =      1179.3073 
Volume   =     10740.1899 
SHAKE stats (type/ave/delta) on step 50000
  2 1.08987 2.41891e-06
  4 0.944891 0
  5 0.999884 5.52272e-06
  6 109.47 0.000479081
---------------- Step    50000 ----- CPU =    131.4320 (sec) ----------------
TotEng   =     -3300.0229 KinEng   =       659.8000 Temp     =       304.6091 
PotEng   =     -3959.8229 E_bond   =         0.2121 E_angle  =         7.9928 
E_dihed  =         1.6730 E_impro  =         0.0000 E_vdwl   =       740.0120 
E_coul   =     14711.1622 E_long   =    -19420.8751 Press    =      -472.9828 
Volume   =     11091.3912 
SHAKE stats (type/ave/delta) on step 55000
  2 1.09003 9.10601e-07
  4 0.945029 0
  5 1.00003 7.30943e-06
  6 109.47 0.000649002
---------------- Step    55000 ----- CPU =    145.0251 (sec) ----------------
TotEng   =     -3389.9097 KinEng   =       646.3473 Temp     =       298.3983 
PotEng   =     -4036.2570 E_bond   =         1.9621 E_angle  =         6.0600 
E_dihed  =         0.1418 E_impro  =         0.0000 E_vdwl   =       800.3762 
E_coul   =     14577.6848 E_long   =    -19422.4819 Press    =        56.0359 
Volume   =     10944.0113 
SHAKE stats (type/ave/delta) on step 60000
  2 1.08996 1.76955e-06
  4 0.944962 0
  5 0.999962 8.41814e-06
  6 109.47 0.000648387
---------------- Step    60000 ----- CPU =    159.2572 (sec) ----------------
TotEng   =     -3345.5731 KinEng   =       638.1403 Temp     =       294.6094 
PotEng   =     -3983.7134 E_bond   =         0.5224 E_angle  =         7.1337 
E_dihed  =         0.7286 E_impro  =         0.0000 E_vdwl   =       790.7349 
E_coul   =     14641.8039 E_long   =    -19424.6369 Press    =       570.5380 
Volume   =     11046.0948 
SHAKE stats (type/ave/delta) on step 65000
  2 1.09001 5.0978e-06
  4 0.945012 0
  5 1.00001 8.82249e-06
  6 109.47 0.000708388
---------------- Step    65000 ----- CPU =    173.6123 (sec) ----------------
TotEng   =     -3338.3430 KinEng   =       675.3683 Temp     =       311.7964 
PotEng   =     -4013.7113 E_bond   =         0.2003 E_angle  =         6.6438 
E_dihed  =         0.5156 E_impro  =         0.0000 E_vdwl   =       750.8357 
E_coul   =     14653.7412 E_long   =    -19425.6478 Press    =      -143.5476 
Volume   =     10733.4739 
SHAKE stats (type/ave/delta) on step 70000
  2 1.09009 9.76773e-07
  4 0.945074 0
  5 1.00008 6.28085e-06
  6 109.47 0.000512372
---------------- Step    70000 ----- CPU =    187.7789 (sec) ----------------
TotEng   =     -3403.1704 KinEng   =       619.3378 Temp     =       285.9289 
PotEng   =     -4022.5082 E_bond   =         1.1459 E_angle  =         5.2650 
E_dihed  =         0.1639 E_impro  =         0.0000 E_vdwl   =       810.9295 
E_coul   =     14583.8403 E_long   =    -19423.8527 Press    =       244.1105 
Volume   =     11144.0274 
SHAKE stats (type/ave/delta) on step 75000
  2 1.08991 8.54878e-07
  4 0.944923 0
  5 0.999918 4.97387e-06
  6 109.47 0.000488545
---------------- Step    75000 ----- CPU =    202.3815 (sec) ----------------
TotEng   =     -3412.7652 KinEng   =       622.7862 Temp     =       287.5209 
PotEng   =     -4035.5514 E_bond   =         0.4715 E_angle  =         4.1039 
E_dihed  =         1.8224 E_impro  =         0.0000 E_vdwl   =       760.9222 
E_coul   =     14623.3207 E_long   =    -19426.1921 Press    =      -226.1948 
Volume   =     10907.6145 
SHAKE stats (type/ave/delta) on step 80000
  2 1.08979 4.01122e-07
  4 0.944822 0
  5 0.999812 4.07019e-06
  6 109.47 0.000433517
---------------- Step    80000 ----- CPU =    216.8360 (sec) ----------------
TotEng   =     -3321.9037 KinEng   =       632.6400 Temp     =       292.0701 
PotEng   =     -3954.5437 E_bond   =         0.2372 E_angle  =         6.6562 
E_dihed  =         0.1589 E_impro  =         0.0000 E_vdwl   =       805.7304 
E_coul   =     14653.3100 E_long   =    -19420.6365 Press    =       798.8204 
Volume   =     11019.6709 
SHAKE stats (type/ave/delta) on step 85000
  2 1.09004 1.50125e-06
  4 0.945032 0
  5 1.00003 7.74274e-06
  6 109.47 0.000736443
---------------- Step    85000 ----- CPU =    231.5765 (sec) ----------------
TotEng   =     -3327.5249 KinEng   =       674.3297 Temp     =       311.3169 
PotEng   =     -4001.8546 E_bond   =         1.8228 E_angle  =         4.8734 
E_dihed  =         0.9654 E_impro  =         0.0000 E_vdwl   =       706.0917 
E_coul   =     14708.5880 E_long   =    -19424.1960 Press    =     -1220.1913 
Volume   =     11015.2082 
SHAKE stats (type/ave/delta) on step 90000
  2 1.08992 1.46764e-07
  4 0.944931 0
  5 0.999927 4.23949e-06
  6 109.47 0.000370094
---------------- Step    90000 ----- CPU =    246.1370 (sec) ----------------
TotEng   =     -3422.8357 KinEng   =       595.5166 Temp     =       274.9314 
PotEng   =     -4018.3523 E_bond   =         0.1492 E_angle  =         3.0575 
E_dihed  =         0.1449 E_impro  =         0.0000 E_vdwl   =       796.9992 
E_coul   =     14606.5490 E_long   =    -19425.2521 Press    =       117.6579 
Volume   =     11093.4745 
SHAKE stats (type/ave/delta) on step 95000
  2 1.09013 2.55999e-06
  4 0.945113 0
  5 1.00012 8.6285e-06
  6 109.47 0.00102411
---------------- Step    95000 ----- CPU =    260.3733 (sec) ----------------
TotEng   =     -3408.3083 KinEng   =       637.2485 Temp     =       294.1977 
PotEng   =     -4045.5568 E_bond   =         0.7850 E_angle  =         6.6793 
E_dihed  =         1.1911 E_impro  =         0.0000 E_vdwl   =       808.0179 
E_coul   =     14563.0767 E_long   =    -19425.3069 Press    =      -231.7341 
Volume   =     11220.4986 
SHAKE stats (type/ave/delta) on step 100000
  2 1.08994 6.18296e-07
  4 0.94495 0
  5 0.999948 5.0433e-06
  6 109.47 0.000496404
---------------- Step   100000 ----- CPU =    274.2977 (sec) ----------------
TotEng   =     -3323.1320 KinEng   =       645.6243 Temp     =       298.0646 
PotEng   =     -3968.7563 E_bond   =         2.2660 E_angle  =         6.0670 
E_dihed  =         0.4837 E_impro  =         0.0000 E_vdwl   =       766.6265 
E_coul   =     14679.9421 E_long   =    -19424.1416 Press    =       229.1437 
Volume   =     10837.9615 
SHAKE stats (type/ave/delta) on step 105000
  2 1.09 3.00078e-06
  4 0.945002 0
  5 1 9.0261e-06
  6 109.47 0.000714369
---------------- Step   105000 ----- CPU =    288.2574 (sec) ----------------
TotEng   =     -3330.2460 KinEng   =       674.0250 Temp     =       311.1763 
PotEng   =     -4004.2710 E_bond   =         1.2080 E_angle  =         2.4633 
E_dihed  =         0.1941 E_impro  =         0.0000 E_vdwl   =       731.3228 
E_coul   =     14682.8391 E_long   =    -19422.2983 Press    =      -661.3098 
Volume   =     10980.9073 
SHAKE stats (type/ave/delta) on step 110000
  2 1.08994 4.50645e-06
  4 0.944945 0
  5 0.999948 1.51624e-05
  6 109.47 0.00124596
---------------- Step   110000 ----- CPU =    302.0511 (sec) ----------------
TotEng   =     -3376.9283 KinEng   =       657.5228 Temp     =       303.5577 
PotEng   =     -4034.4510 E_bond   =         0.2162 E_angle  =         3.1596 
E_dihed  =         0.4532 E_impro  =         0.0000 E_vdwl   =       764.9996 
E_coul   =     14618.0849 E_long   =    -19421.3645 Press    =      -289.4118 
Volume   =     10887.1876 
SHAKE stats (type/ave/delta) on step 115000
  2 1.08991 1.82336e-06
  4 0.944921 0
  5 0.999917 7.07411e-06
  6 109.47 0.00072341
---------------- Step   115000 ----- CPU =    316.1664 (sec) ----------------
TotEng   =     -3399.3976 KinEng   =       655.9347 Temp     =       302.8245 
PotEng   =     -4055.3323 E_bond   =         0.3356 E_angle  =         1.9301 
E_dihed  =         0.1305 E_impro  =         0.0000 E_vdwl   =       773.9684 
E_coul   =     14590.6943 E_long   =    -19422.3913 Press    =      -169.8635 
Volume   =     10948.4820 
SHAKE stats (type/ave/delta) on step 120000
  2 1.08995 1.16738e-06
  4 0.944956 0
  5 0.999955 1.00636e-05
  6 109.47 0.000878242
---------------- Step   120000 ----- CPU =    330.1761 (sec) ----------------
TotEng   =     -3347.5869 KinEng   =       653.4675 Temp     =       301.6855 
PotEng   =     -4001.0544 E_bond   =         0.0287 E_angle  =         3.3017 
E_dihed  =         0.1558 E_impro  =         0.0000 E_vdwl   =       736.5257 
E_coul   =     14681.8959 E_long   =    -19422.9623 Press    =      -308.5610 
Volume   =     10795.9143 
SHAKE stats (type/ave/delta) on step 125000
  2 1.09 5.28614e-07
  4 0.945004 1.11022e-15
  5 1 4.5562e-06
  6 109.47 0.000506476
---------------- Step   125000 ----- CPU =    344.1229 (sec) ----------------
TotEng   =     -3333.1647 KinEng   =       629.8483 Temp     =       290.7813 
PotEng   =     -3963.0131 E_bond   =         0.6199 E_angle  =         4.4037 
E_dihed  =         1.3650 E_impro  =         0.0000 E_vdwl   =       733.8974 
E_coul   =     14720.6448 E_long   =    -19423.9439 Press    =      -273.7091 
Volume   =     10875.4127 
SHAKE stats (type/ave/delta) on step 130000
  2 1.08999 9.82289e-07
  4 0.94499 0
  5 0.999991 5.6255e-06
  6 109.47 0.000534878
---------------- Step   130000 ----- CPU =    356.8952 (sec) ----------------
TotEng   =     -3354.4638 KinEng   =       646.1669 Temp     =       298.3150 
PotEng   =     -4000.6307 E_bond   =         0.7383 E_angle  =         2.5113 
E_dihed  =         0.3791 E_impro  =         0.0000 E_vdwl   =       789.9983 
E_coul   =     14628.1357 E_long   =    -19422.3934 Press    =       312.7170 
Volume   =     10879.9092 
SHAKE stats (type/ave/delta) on step 135000
  2 1.08998 1.6711e-06
  4 0.94498 0
  5 0.999979 4.91706e-06
  6 109.47 0.000501107
---------------- Step   135000 ----- CPU =    369.9911 (sec) ----------------
TotEng   =     -3359.5123 KinEng   =       682.1508 Temp     =       314.9277 
PotEng   =     -4041.6632 E_bond   =         0.3777 E_angle  =         2.7635 
E_dihed  =         1.4798 E_impro  =         0.0000 E_vdwl   =       776.4336 
E_coul   =     14597.9896 E_long   =    -19420.7074 Press    =        -2.1524 
Volume   =     10942.8801 
SHAKE stats (type/ave/delta) on step 140000
  2 1.08986 1.40101e-07
  4 0.94488 0
  5 0.999874 3.88304e-06
  6 109.47 0.000341126
---------------- Step   140000 ----- CPU =    382.7206 (sec) ----------------
TotEng   =     -3391.2394 KinEng   =       620.7904 Temp     =       286.5995 
PotEng   =     -4012.0298 E_bond   =         0.1405 E_angle  =         2.9911 
E_dihed  =         1.6967 E_impro  =         0.0000 E_vdwl   =       733.7533 
E_coul   =     14672.9394 E_long   =    -19423.5507 Press    =      -692.6185 
Volume   =     10931.5024 
SHAKE stats (type/ave/delta) on step 145000
  2 1.09005 6.14603e-06
  4 0.94504 0
  5 1.00004 2.93521e-05
  6 109.47 0.00248536
---------------- Step   145000 ----- CPU =    395.3590 (sec) ----------------
TotEng   =     -3340.4390 KinEng   =       640.3216 Temp     =       295.6165 
PotEng   =     -3980.7606 E_bond   =         0.5438 E_angle  =         5.3073 
E_dihed  =         1.7242 E_impro  =         0.0000 E_vdwl   =       755.2550 
E_coul   =     14680.6289 E_long   =    -19424.2198 Press    =      -469.7493 
Volume   =     11066.9024 
SHAKE stats (type/ave/delta) on step 150000
  2 1.09003 8.22517e-07
  4 0.945031 0
  5 1.00003 6.26115e-06
  6 109.47 0.000571546
---------------- Step   150000 ----- CPU =    408.7849 (sec) ----------------
TotEng   =     -3405.9290 KinEng   =       608.8165 Temp     =       281.0716 
PotEng   =     -4014.7456 E_bond   =         0.0303 E_angle  =         2.0833 
E_dihed  =         1.0175 E_impro  =         0.0000 E_vdwl   =       726.8240 
E_coul   =     14679.9626 E_long   =    -19424.6633 Press    =     -1213.9863 
Volume   =     11036.6839 
SHAKE stats (type/ave/delta) on step 155000
  2 1.08996 1.33324e-06
  4 0.944963 0
  5 0.999961 7.68701e-06
  6 109.47 0.000640366
---------------- Step   155000 ----- CPU =    422.9720 (sec) ----------------
TotEng   =     -3305.9917 KinEng   =       656.8835 Temp     =       303.2625 
PotEng   =     -3962.8751 E_bond   =         1.0345 E_angle  =         3.6983 
E_dihed  =         1.3587 E_impro  =         0.0000 E_vdwl   =       752.9116 
E_coul   =     14704.1361 E_long   =    -19426.0143 Press    =      -228.5670 
Volume   =     11012.2082 
SHAKE stats (type/ave/delta) on step 160000
  2 1.08989 1.06493e-07
  4 0.944908 0
  5 0.999903 3.74344e-06
  6 109.47 0.000350216
---------------- Step   160000 ----- CPU =    436.7264 (sec) ----------------
TotEng   =     -3329.1671 KinEng   =       641.9249 Temp     =       296.3567 
PotEng   =     -3971.0920 E_bond   =         1.0877 E_angle  =         5.3687 
E_dihed  =         0.1495 E_impro  =         0.0000 E_vdwl   =       773.7578 
E_coul   =     14672.6364 E_long   =    -19424.0920 Press    =      -220.7823 
Volume   =     11061.7585 
SHAKE stats (type/ave/delta) on step 165000
  2 1.08998 3.26502e-06
  4 0.944988 0
  5 0.999985 1.03504e-05
  6 109.47 0.00115343
---------------- Step   165000 ----- CPU =    450.1520 (sec) ----------------
TotEng   =     -3308.7874 KinEng   =       631.6620 Temp     =       291.6186 
PotEng   =     -3940.4494 E_bond   =         0.1890 E_angle  =         5.1259 
E_dihed  =         0.1243 E_impro  =         0.0000 E_vdwl   =       796.6047 
E_coul   =     14678.6699 E_long   =    -19421.1631 Press    =      1097.1606 
Volume   =     10914.4558 
SHAKE stats (type/ave/delta) on step 170000
  2 1.08997 1.16685e-06
  4 0.944974 0
  5 0.999973 7.65085e-06
  6 109.47 0.000659619
---------------- Step   170000 ----- CPU =    463.9673 (sec) ----------------
TotEng   =     -3315.0000 KinEng   =       637.3316 Temp     =       294.2361 
PotEng   =     -3952.3316 E_bond   =         0.1810 E_angle  =         6.5231 
E_dihed  =         0.9898 E_impro  =         0.0000 E_vdwl   =       747.8668 
E_coul   =     14714.0915 E_long   =    -19421.9839 Press    =        68.9165 
Volume   =     10961.5866 
SHAKE stats (type/ave/delta) on step 175000
  2 1.0901 4.08696e-07
  4 0.945086 0
  5 1.00009 3.95609e-06
  6 109.47 0.000403334
---------------- Step   175000 ----- CPU =    477.7340 (sec) ----------------
TotEng   =     -3335.2894 KinEng   =       673.0926 Temp     =       310.7458 
PotEng   =     -4008.3821 E_bond   =         0.2412 E_angle  =         3.6743 
E_dihed  =         0.0744 E_impro  =         0.0000 E_vdwl   =       829.3828 
E_coul   =     14583.0794 E_long   =    -19424.8342 Press    =      1293.1700 
Volume   =     10912.9820 
SHAKE stats (type/ave/delta) on step 180000
  2 1.09003 1.55189e-06
  4 0.945027 0
  5 1.00003 1.23569e-05
  6 109.47 0.000806127
---------------- Step   180000 ----- CPU =    491.4392 (sec) ----------------
TotEng   =     -3419.1681 KinEng   =       659.7325 Temp     =       304.5779 
PotEng   =     -4078.9006 E_bond   =         0.2512 E_angle  =         3.5329 
E_dihed  =         0.4234 E_impro  =         0.0000 E_vdwl   =       784.5822 
E_coul   =     14556.2474 E_long   =    -19423.9377 Press    =      -322.6354 
Volume   =     10919.8147 
SHAKE stats (type/ave/delta) on step 185000
  2 1.09011 1.17214e-06
  4 0.945098 0
  5 1.0001 1.00753e-05
  6 109.47 0.000663578
---------------- Step   185000 ----- CPU =    505.1383 (sec) ----------------
TotEng   =     -3350.2343 KinEng   =       646.5188 Temp     =       298.4775 
PotEng   =     -3996.7532 E_bond   =         0.6486 E_angle  =         3.7584 
E_dihed  =         0.8985 E_impro  =         0.0000 E_vdwl   =       774.8330 
E_coul   =     14647.6864 E_long   =    -19424.5780 Press    =       141.9983 
Volume   =     11041.1248 
SHAKE stats (type/ave/delta) on step 190000
  2 1.09008 1.31887e-07
  4 0.945068 0
  5 1.00007 3.9225e-06
  6 109.47 0.000382305
---------------- Step   190000 ----- CPU =    518.7694 (sec) ----------------
TotEng   =     -3287.1390 KinEng   =       703.9574 Temp     =       324.9951 
PotEng   =     -3991.0964 E_bond   =         0.0609 E_angle  =         4.3888 
E_dihed  =         0.3803 E_impro  =         0.0000 E_vdwl   =       783.0805 
E_coul   =     14644.9331 E_long   =    -19423.9400 Press    =       620.3523 
Volume   =     10914.1587 
SHAKE stats (type/ave/delta) on step 195000
  2 1.08997 3.94282e-06
  4 0.944971 0
  5 0.99997 1.04592e-05
  6 109.47 0.000724205
---------------- Step   195000 ----- CPU =    532.3400 (sec) ----------------
TotEng   =     -3390.6498 KinEng   =       648.7010 Temp     =       299.4850 
PotEng   =     -4039.3508 E_bond   =         0.2290 E_angle  =         3.1196 
E_dihed  =         1.2530 E_impro  =         0.0000 E_vdwl   =       739.9030 
E_coul   =     14641.0276 E_long   =    -19424.8830 Press    =      -751.1149 
Volume   =     10899.3190 
SHAKE stats (type/ave/delta) on step 200000
  2 1.08987 1.39708e-06
  4 0.944888 0
  5 0.999882 6.04786e-06
  6 109.47 0.000659829
---------------- Step   200000 ----- CPU =    545.8378 (sec) ----------------
TotEng   =     -3296.4149 KinEng   =       676.1029 Temp     =       312.1356 
PotEng   =     -3972.5178 E_bond   =         0.0338 E_angle  =         5.6002 
E_dihed  =         0.3364 E_impro  =         0.0000 E_vdwl   =       782.7570 
E_coul   =     14662.9020 E_long   =    -19424.1472 Press    =       516.1622 
Volume   =     10982.4589 
SHAKE stats (type/ave/delta) on step 205000
  2 1.08996 1.7692e-06
  4 0.944963 0
  5 0.999963 9.24505e-06
  6 109.47 0.000749439
---------------- Step   205000 ----- CPU =    559.6407 (sec) ----------------
TotEng   =     -3340.1777 KinEng   =       632.1156 Temp     =       291.8280 
PotEng   =     -3972.2933 E_bond   =         0.0103 E_angle  =         3.1817 
E_dihed  =         0.3957 E_impro  =         0.0000 E_vdwl   =       758.4788 
E_coul   =     14689.7412 E_long   =    -19424.1010 Press    =      -341.5697 
Volume   =     11288.2525 
SHAKE stats (type/ave/delta) on step 210000
  2 1.08992 1.30273e-06
  4 0.94493 0
  5 0.999926 9.62755e-06
  6 109.47 0.000712514
---------------- Step   210000 ----- CPU =    573.5261 (sec) ----------------
TotEng   =     -3322.7504 KinEng   =       675.5332 Temp     =       311.8726 
PotEng   =     -3998.2837 E_bond   =         0.3187 E_angle  =         5.7936 
E_dihed  =         1.0595 E_impro  =         0.0000 E_vdwl   =       810.5809 
E_coul   =     14606.8631 E_long   =    -19422.8996 Press    =      1028.3745 
Volume   =     10947.2927 
SHAKE stats (type/ave/delta) on step 215000
  2 1.09012 1.64377e-06
  4 0.945108 0
  5 1.00011 5.53915e-06
  6 109.47 0.000510642
---------------- Step   215000 ----- CPU =    587.4678 (sec) ----------------
TotEng   =     -3344.0336 KinEng   =       636.6917 Temp     =       293.9406 
PotEng   =     -3980.7253 E_bond   =         0.0097 E_angle  =         6.6207 
E_dihed  =         0.4740 E_impro  =         0.0000 E_vdwl   =       785.6941 
E_coul   =     14652.8736 E_long   =    -19426.3973 Press    =       243.8157 
Volume   =     11067.1159 
SHAKE stats (type/ave/delta) on step 220000
  2 1.08997 2.09596e-06
  4 0.944975 0
  5 0.999974 4.67981e-06
  6 109.47 0.000703399
---------------- Step   220000 ----- CPU =    601.0468 (sec) ----------------
TotEng   =     -3373.3858 KinEng   =       636.1118 Temp     =       293.6729 
PotEng   =     -4009.4976 E_bond   =         0.5964 E_angle  =         3.6923 
E_dihed  =         0.1046 E_impro  =         0.0000 E_vdwl   =       755.3432 
E_coul   =     14655.8786 E_long   =    -19425.1128 Press    =      -417.6819 
Volume   =     10978.6629 
SHAKE stats (type/ave/delta) on step 225000
  2 1.08999 2.43044e-06
  4 0.944995 0
  5 0.999996 5.13298e-06
  6 109.47 0.000638445
---------------- Step   225000 ----- CPU =    614.7170 (sec) ----------------
TotEng   =     -3340.3410 KinEng   =       654.6610 Temp     =       302.2365 
PotEng   =     -3995.0020 E_bond   =         2.3141 E_angle  =         3.5797 
E_dihed  =         1.1780 E_impro  =         0.0000 E_vdwl   =       756.1287 
E_coul   =     14665.7752 E_long   =    -19423.9777 Press    =        78.8858 
Volume   =     10986.1406 
SHAKE stats (type/ave/delta) on step 230000
  2 1.09003 4.85323e-06
  4 0.945027 0
  5 1.00003 1.31789e-05
  6 109.47 0.00165901
---------------- Step   230000 ----- CPU =    628.4983 (sec) ----------------
TotEng   =     -3437.9600 KinEng   =       601.3733 Temp     =       277.6352 
PotEng   =     -4039.3333 E_bond   =         1.3480 E_angle  =         3.5359 
E_dihed  =         0.6575 E_impro  =         0.0000 E_vdwl   =       822.4244 
E_coul   =     14554.9264 E_long   =    -19422.2255 Press    =       608.4276 
Volume   =     10855.6019 
SHAKE stats (type/ave/delta) on step 235000
  2 1.09004 1.34453e-06
  4 0.945038 0
  5 1.00004 3.92298e-06
  6 109.47 0.000427752
---------------- Step   235000 ----- CPU =    642.4595 (sec) ----------------
TotEng   =     -3350.7246 KinEng   =       635.5272 Temp     =       293.4030 
PotEng   =     -3986.2518 E_bond   =         0.3653 E_angle  =         7.3514 
E_dihed  =         0.5936 E_impro  =         0.0000 E_vdwl   =       796.7348 
E_coul   =     14631.4285 E_long   =    -19422.7255 Press    =       -17.9315 
Volume   =     11262.6736 
SHAKE stats (type/ave/delta) on step 240000
  2 1.09014 4.53514e-06
  4 0.945124 0
  5 1.00013 1.02552e-05
  6 109.47 0.000835051
---------------- Step   240000 ----- CPU =    655.8503 (sec) ----------------
TotEng   =     -3362.2317 KinEng   =       617.0852 Temp     =       284.8889 
PotEng   =     -3979.3170 E_bond   =         0.4276 E_angle  =         8.1027 
E_dihed  =         0.2025 E_impro  =         0.0000 E_vdwl   =       796.3404 
E_coul   =     14638.9848 E_long   =    -19423.3749 Press    =       797.5570 
Volume   =     10966.0129 
SHAKE stats (type/ave/delta) on step 245000
  2 1.09008 4.43287e-07
  4 0.945069 0
  5 1.00007 4.68545e-06
  6 109.47 0.00037003
---------------- Step   245000 ----- CPU =    669.1160 (sec) ----------------
TotEng   =     -3341.6153 KinEng   =       664.0620 Temp     =       306.5766 
PotEng   =     -4005.6772 E_bond   =         0.1083 E_angle  =         4.1364 
E_dihed  =         2.0519 E_impro  =         0.0000 E_vdwl   =       781.9820 
E_coul   =     14632.7658 E_long   =    -19426.7217 Press    =       742.3902 
Volume   =     10641.8590 
SHAKE stats (type/ave/delta) on step 250000
  2 1.08997 2.42321e-07
  4 0.944972 0
  5 0.999971 3.76087e-06
  6 109.47 0.000379643
---------------- Step   250000 ----- CPU =    683.3768 (sec) ----------------
TotEng   =     -3343.8794 KinEng   =       651.9093 Temp     =       300.9661 
PotEng   =     -3995.7887 E_bond   =         0.1566 E_angle  =         2.6333 
E_dihed  =         1.3282 E_impro  =         0.0000 E_vdwl   =       762.9484 
E_coul   =     14661.3007 E_long   =    -19424.1560 Press    =      -417.5165 
Volume   =     11178.5729 
SHAKE stats (type/ave/delta) on step 255000
  2 1.08992 4.41024e-07
  4 0.944929 8.88178e-16
  5 0.999926 6.05519e-06
  6 109.47 0.000477072
---------------- Step   255000 ----- CPU =    696.5251 (sec) ----------------
TotEng   =     -3298.9224 KinEng   =       652.6654 Temp     =       301.3152 
PotEng   =     -3951.5878 E_bond   =         0.3352 E_angle  =         4.9271 
E_dihed  =         0.8457 E_impro  =         0.0000 E_vdwl   =       778.9704 
E_coul   =     14684.2246 E_long   =    -19420.8908 Press    =       138.3966 
Volume   =     11257.1589 
SHAKE stats (type/ave/delta) on step 260000
  2 1.09004 3.1237e-07
  4 0.945035 0
  5 1.00004 4.50222e-06
  6 109.47 0.000373514
---------------- Step   260000 ----- CPU =    709.6777 (sec) ----------------
TotEng   =     -3420.7782 KinEng   =       630.3394 Temp     =       291.0080 
PotEng   =     -4051.1176 E_bond   =         0.0132 E_angle  =         3.6155 
E_dihed  =         0.5815 E_impro  =         0.0000 E_vdwl   =       750.9454 
E_coul   =     14617.5656 E_long   =    -19423.8388 Press    =      -727.8049 
Volume   =     10948.7057 
SHAKE stats (type/ave/delta) on step 265000
  2 1.08989 9.99683e-07
  4 0.944901 0
  5 0.999896 1.22075e-05
  6 109.47 0.000756956
---------------- Step   265000 ----- CPU =    722.6195 (sec) ----------------
TotEng   =     -3381.9987 KinEng   =       642.3639 Temp     =       296.5593 
PotEng   =     -4024.3627 E_bond   =         0.0940 E_angle  =         3.4315 
E_dihed  =         0.4573 E_impro  =         0.0000 E_vdwl   =       797.9134 
E_coul   =     14598.6343 E_long   =    -19424.8932 Press    =      1093.2784 
Volume   =     10558.2048 
SHAKE stats (type/ave/delta) on step 270000
  2 1.09003 6.00576e-07
  4 0.945029 0
  5 1.00003 5.80884e-06
  6 109.47 0.000399543
---------------- Step   270000 ----- CPU =    736.1401 (sec) ----------------
TotEng   =     -3310.9603 KinEng   =       688.7999 Temp     =       317.9974 
PotEng   =     -3999.7602 E_bond   =         0.3088 E_angle  =         3.4249 
E_dihed  =         0.6221 E_impro  =         0.0000 E_vdwl   =       805.4944 
E_coul   =     14614.9985 E_long   =    -19424.6089 Press    =       917.3128 
Volume   =     10810.3157 
SHAKE stats (type/ave/delta) on step 275000
  2 1.08999 3.12422e-07
  4 0.944987 0
  5 0.999987 3.90094e-06
  6 109.47 0.000360799
---------------- Step   275000 ----- CPU =    749.0481 (sec) ----------------
TotEng   =     -3293.9470 KinEng   =       678.6865 Temp     =       313.3283 
PotEng   =     -3972.6334 E_bond   =         0.1865 E_angle  =         3.2997 
E_dihed  =         0.7255 E_impro  =         0.0000 E_vdwl   =       784.4666 
E_coul   =     14661.4103 E_long   =    -19422.7219 Press    =       646.3112 
Volume   =     10983.7087 
SHAKE stats (type/ave/delta) on step 280000
  2 1.08984 4.95439e-06
  4 0.944861 0
  5 0.999854 9.3381e-06
  6 109.47 0.000998602
---------------- Step   280000 ----- CPU =    762.6974 (sec) ----------------
TotEng   =     -3335.6501 KinEng   =       668.4895 Temp     =       308.6207 
PotEng   =     -4004.1396 E_bond   =         2.1173 E_angle  =         5.3760 
E_dihed  =         1.4040 E_impro  =         0.0000 E_vdwl   =       743.5952 
E_coul   =     14670.0307 E_long   =    -19426.6628 Press    =      -312.6563 
Volume   =     10908.0741 
SHAKE stats (type/ave/delta) on step 285000
  2 1.09001 3.51794e-07
  4 0.945009 0
  5 1.00001 4.89475e-06
  6 109.47 0.000409464
---------------- Step   285000 ----- CPU =    776.8830 (sec) ----------------
TotEng   =     -3375.7188 KinEng   =       648.6552 Temp     =       299.4638 
PotEng   =     -4024.3740 E_bond   =         1.7064 E_angle  =         1.9348 
E_dihed  =         1.1508 E_impro  =         0.0000 E_vdwl   =       800.3800 
E_coul   =     14594.1399 E_long   =    -19423.6860 Press    =       755.0109 
Volume   =     10854.1156 
SHAKE stats (type/ave/delta) on step 290000
  2 1.08996 4.97052e-06
  4 0.944961 0
  5 0.99996 7.28104e-06
  6 109.47 0.000801965
---------------- Step   290000 ----- CPU =    791.2760 (sec) ----------------
TotEng   =     -3355.8983 KinEng   =       652.3742 Temp     =       301.1807 
PotEng   =     -4008.2724 E_bond   =         1.0492 E_angle  =         1.9821 
E_dihed  =         0.0529 E_impro  =         0.0000 E_vdwl   =       735.8043 
E_coul   =     14676.0065 E_long   =    -19423.1675 Press    =      -811.3606 
Volume   =     11068.8593 
SHAKE stats (type/ave/delta) on step 295000
  2 1.08997 8.91828e-07
  4 0.944972 0
  5 0.999972 6.10391e-06
  6 109.47 0.00051855
---------------- Step   295000 ----- CPU =    805.8155 (sec) ----------------
TotEng   =     -3427.9721 KinEng   =       606.3506 Temp     =       279.9331 
PotEng   =     -4034.3226 E_bond   =         0.1806 E_angle  =         2.4268 
E_dihed  =         1.5001 E_impro  =         0.0000 E_vdwl   =       751.9444 
E_coul   =     14633.2155 E_long   =    -19423.5901 Press    =     -1002.0192 
Volume   =     11167.3286 
SHAKE stats (type/ave/delta) on step 300000
  2 1.09001 8.5429e-07
  4 0.945004 0
  5 1.00001 7.00372e-06
  6 109.47 0.000548576
---------------- Step   300000 ----- CPU =    819.5151 (sec) ----------------
TotEng   =     -3350.0927 KinEng   =       646.6349 Temp     =       298.5311 
PotEng   =     -3996.7276 E_bond   =         0.0575 E_angle  =         3.8794 
E_dihed  =         0.9942 E_impro  =         0.0000 E_vdwl   =       734.9739 
E_coul   =     14688.1401 E_long   =    -19424.7727 Press    =      -829.3129 
Volume   =     11240.1029 
SHAKE stats (type/ave/delta) on step 305000
  2 1.09004 1.20713e-06
  4 0.945033 0
  5 1.00004 5.85239e-06
  6 109.47 0.000550384
---------------- Step   305000 ----- CPU =    833.4623 (sec) ----------------
TotEng   =     -3388.4940 KinEng   =       630.2191 Temp     =       290.9524 
PotEng   =     -4018.7130 E_bond   =         0.6272 E_angle  =         4.8221 
E_dihed  =         0.2292 E_impro  =         0.0000 E_vdwl   =       779.2628 
E_coul   =     14621.1416 E_long   =    -19424.7959 Press    =       477.6515 
Volume   =     10682.9407 
SHAKE stats (type/ave/delta) on step 310000
  2 1.09002 1.42427e-06
  4 0.945017 0
  5 1.00002 5.53773e-06
  6 109.47 0.000424374
---------------- Step   310000 ----- CPU =    847.7164 (sec) ----------------
TotEng   =     -3354.3721 KinEng   =       657.1406 Temp     =       303.3813 
PotEng   =     -4011.5127 E_bond   =         0.1689 E_angle  =         2.6043 
E_dihed  =         0.4865 E_impro  =         0.0000 E_vdwl   =       745.5075 
E_coul   =     14662.2551 E_long   =    -19422.5349 Press    =      -565.6495 
Volume   =     11029.0684 
SHAKE stats (type/ave/delta) on step 315000
  2 1.08998 3.99305e-07
  4 0.944983 0
  5 0.999983 5.15939e-06
  6 109.47 0.000419688
---------------- Step   315000 ----- CPU =    861.9251 (sec) ----------------
TotEng   =     -3342.9797 KinEng   =       669.6561 Temp     =       309.1593 
PotEng   =     -4012.6358 E_bond   =         0.9239 E_angle  =         3.7554 
E_dihed  =         0.0585 E_impro  =         0.0000 E_vdwl   =       837.2557 
E_coul   =     14569.5563 E_long   =    -19424.1856 Press    =      1575.0953 
Volume   =     10721.1424 
SHAKE stats (type/ave/delta) on step 320000
  2 1.09 1.03985e-06
  4 0.945 0
  5 1 3.91905e-06
  6 109.47 0.000368471
---------------- Step   320000 ----- CPU =    875.8157 (sec) ----------------
TotEng   =     -3335.2958 KinEng   =       643.1354 Temp     =       296.9155 
PotEng   =     -3978.4312 E_bond   =         1.0404 E_angle  =         2.9092 
E_dihed  =         0.1574 E_impro  =         0.0000 E_vdwl   =       722.4240 
E_coul   =     14719.3488 E_long   =    -19424.3110 Press    =      -560.3504 
Volume   =     11006.1571 
SHAKE stats (type/ave/delta) on step 325000
  2 1.08987 1.88019e-06
  4 0.944892 0
  5 0.999882 1.21967e-05
  6 109.47 0.00145415
---------------- Step   325000 ----- CPU =    889.5455 (sec) ----------------
TotEng   =     -3408.0508 KinEng   =       631.3584 Temp     =       291.4784 
PotEng   =     -4039.4091 E_bond   =         0.0979 E_angle  =         2.0924 
E_dihed  =         0.0647 E_impro  =         0.0000 E_vdwl   =       762.5442 
E_coul   =     14619.4541 E_long   =    -19423.6624 Press    =      -644.7466 
Volume   =     11131.5445 
SHAKE stats (type/ave/delta) on step 330000
  2 1.0899 2.5951e-07
  4 0.944909 0
  5 0.999905 4.62024e-06
  6 109.47 0.000417221
---------------- Step   330000 ----- CPU =    903.6537 (sec) ----------------
TotEng   =     -3326.0415 KinEng   =       623.6415 Temp     =       287.9158 
PotEng   =     -3949.6830 E_bond   =         0.7878 E_angle  =         6.9934 
E_dihed  =         1.3865 E_impro  =         0.0000 E_vdwl   =       753.3993 
E_coul   =     14712.1710 E_long   =    -19424.4209 Press    =      -212.0802 
Volume   =     11173.6098 
SHAKE stats (type/ave/delta) on step 335000
  2 1.08995 1.95896e-06
  4 0.94496 0
  5 0.999958 6.52132e-06
  6 109.47 0.000741561
---------------- Step   335000 ----- CPU =    917.4263 (sec) ----------------
TotEng   =     -3359.1846 KinEng   =       644.6657 Temp     =       297.6220 
PotEng   =     -4003.8503 E_bond   =         0.9070 E_angle  =         5.1388 
E_dihed  =         0.3158 E_impro  =         0.0000 E_vdwl   =       790.4729 
E_coul   =     14623.2984 E_long   =    -19423.9831 Press    =       366.5956 
Volume   =     10884.4961 
SHAKE stats (type/ave/delta) on step 340000
  2 1.0901 2.40111e-06
  4 0.94509 0
  5 1.0001 5.01989e-06
  6 109.47 0.000616949
---------------- Step   340000 ----- CPU =    931.2573 (sec) ----------------
TotEng   =     -3358.5041 KinEng   =       640.9236 Temp     =       295.8944 
PotEng   =     -3999.4277 E_bond   =         0.4121 E_angle  =         6.5625 
E_dihed  =         0.5637 E_impro  =         0.0000 E_vdwl   =       785.4524 
E_coul   =     14630.4477 E_long   =    -19422.8661 Press    =      -203.1232 
Volume   =     11255.3975 
SHAKE stats (type/ave/delta) on step 345000
  2 1.08993 3.91932e-06
  4 0.94494 1.77636e-15
  5 0.999937 5.59393e-06
  6 109.47 0.000466471
---------------- Step   345000 ----- CPU =    944.8043 (sec) ----------------
TotEng   =     -3287.4773 KinEng   =       648.0659 Temp     =       299.1918 
PotEng   =     -3935.5432 E_bond   =         0.2616 E_angle  =         6.6056 
E_dihed  =         0.5212 E_impro  =         0.0000 E_vdwl   =       752.2055 
E_coul   =     14730.1864 E_long   =    -19425.3234 Press    =       517.5360 
Volume   =     10812.8850 
SHAKE stats (type/ave/delta) on step 350000
  2 1.08996 7.90874e-07
  4 0.944962 0
  5 0.99996 7.13093e-06
  6 109.47 0.000691116
---------------- Step   350000 ----- CPU =    958.6238 (sec) ----------------
TotEng   =     -3317.6346 KinEng   =       665.6826 Temp     =       307.3249 
PotEng   =     -3983.3172 E_bond   =         0.9979 E_angle  =         5.4880 
E_dihed  =         0.6388 E_impro  =         0.0000 E_vdwl   =       748.3879 
E_coul   =     14684.7638 E_long   =    -19423.5937 Press    =       138.6288 
Volume   =     10850.4327 
SHAKE stats (type/ave/delta) on step 355000
  2 1.08998 4.18153e-07
  4 0.944984 0
  5 0.999984 3.56482e-06
  6 109.47 0.0003769
---------------- Step   355000 ----- CPU =    972.3050 (sec) ----------------
TotEng   =     -3342.8542 KinEng   =       670.8922 Temp     =       309.7299 
PotEng   =     -4013.7464 E_bond   =         0.0514 E_angle  =         2.4875 
E_dihed  =         1.7578 E_impro  =         0.0000 E_vdwl   =       765.7292 
E_coul   =     14640.0532 E_long   =    -19423.8255 Press    =      -822.1304 
Volume   =     11499.5350 
SHAKE stats (type/ave/delta) on step 360000
  2 1.09015 3.24576e-06
  4 0.945132 0
  5 1.00014 2.18951e-05
  6 109.47 0.00249766
---------------- Step   360000 ----- CPU =    986.3954 (sec) ----------------
TotEng   =     -3364.8649 KinEng   =       650.6818 Temp     =       300.3994 
PotEng   =     -4015.5467 E_bond   =         0.1389 E_angle  =         2.5093 
E_dihed  =         0.0102 E_impro  =         0.0000 E_vdwl   =       765.2131 
E_coul   =     14639.8204 E_long   =    -19423.2385 Press    =         5.3569 
Volume   =     10943.4984 
SHAKE stats (type/ave/delta) on step 365000
  2 1.09003 2.68592e-07
  4 0.945023 0
  5 1.00003 5.15548e-06
  6 109.47 0.000403657
---------------- Step   365000 ----- CPU =   1000.7762 (sec) ----------------
TotEng   =     -3340.0062 KinEng   =       628.4143 Temp     =       290.1192 
PotEng   =     -3968.4204 E_bond   =         0.4078 E_angle  =         3.0812 
E_dihed  =         0.0813 E_impro  =         0.0000 E_vdwl   =       802.8334 
E_coul   =     14646.3464 E_long   =    -19421.1705 Press    =      1096.9897 
Volume   =     10915.6798 
SHAKE stats (type/ave/delta) on step 370000
  2 1.08994 1.04772e-06
  4 0.944948 0
  5 0.999946 1.02771e-05
  6 109.47 0.000680013
---------------- Step   370000 ----- CPU =   1015.4429 (sec) ----------------
TotEng   =     -3335.5042 KinEng   =       660.3124 Temp     =       304.8456 
PotEng   =     -3995.8166 E_bond   =         1.3809 E_angle  =         1.6246 
E_dihed  =         0.2976 E_impro  =         0.0000 E_vdwl   =       762.9243 
E_coul   =     14661.9523 E_long   =    -19423.9963 Press    =       296.3871 
Volume   =     10779.5986 
SHAKE stats (type/ave/delta) on step 375000
  2 1.09008 1.44057e-06
  4 0.945067 0
  5 1.00007 8.45999e-06
  6 109.47 0.000558541
---------------- Step   375000 ----- CPU =   1029.7333 (sec) ----------------
TotEng   =     -3301.6555 KinEng   =       659.0178 Temp     =       304.2479 
PotEng   =     -3960.6733 E_bond   =         0.3457 E_angle  =         3.4491 
E_dihed  =         0.1918 E_impro  =         0.0000 E_vdwl   =       744.5821 
E_coul   =     14713.6859 E_long   =    -19422.9279 Press    =         2.6261 
Volume   =     10999.1895 
SHAKE stats (type/ave/delta) on step 380000
  2 1.09026 3.25312e-07
  4 0.945229 0
  5 1.00024 3.79275e-06
  6 109.47 0.000377859
---------------- Step   380000 ----- CPU =   1043.1790 (sec) ----------------
TotEng   =     -3376.4622 KinEng   =       640.7141 Temp     =       295.7977 
PotEng   =     -4017.1763 E_bond   =         0.0298 E_angle  =         6.9030 
E_dihed  =         0.6442 E_impro  =         0.0000 E_vdwl   =       817.6777 
E_coul   =     14582.4534 E_long   =    -19424.8843 Press    =       652.5766 
Volume   =     11030.9683 
SHAKE stats (type/ave/delta) on step 385000
  2 1.09011 5.60169e-06
  4 0.945097 0
  5 1.00011 1.13062e-05
  6 109.47 0.00130735
---------------- Step   385000 ----- CPU =   1056.6609 (sec) ----------------
TotEng   =     -3367.1715 KinEng   =       647.6758 Temp     =       299.0117 
PotEng   =     -4014.8473 E_bond   =         0.0420 E_angle  =         4.2756 
E_dihed  =         0.2748 E_impro  =         0.0000 E_vdwl   =       729.7782 
E_coul   =     14674.5060 E_long   =    -19423.7239 Press    =      -758.6540 
Volume   =     10989.5484 
SHAKE stats (type/ave/delta) on step 390000
  2 1.08997 2.48474e-07
  4 0.944975 0
  5 0.999975 3.96909e-06
  6 109.47 0.000359317
---------------- Step   390000 ----- CPU =   1070.2502 (sec) ----------------
TotEng   =     -3342.6209 KinEng   =       639.3193 Temp     =       295.1537 
PotEng   =     -3981.9402 E_bond   =         0.1548 E_angle  =         5.1640 
E_dihed  =         1.0208 E_impro  =         0.0000 E_vdwl   =       735.0922 
E_coul   =     14701.5536 E_long   =    -19424.9256 Press    =      -751.5047 
Volume   =     11080.4498 
SHAKE stats (type/ave/delta) on step 395000
  2 1.09001 2.41462e-06
  4 0.945012 0
  5 1.00001 5.16629e-06
  6 109.47 0.000642001
---------------- Step   395000 ----- CPU =   1083.3107 (sec) ----------------
TotEng   =     -3319.8474 KinEng   =       649.0558 Temp     =       299.6488 
PotEng   =     -3968.9032 E_bond   =         0.2609 E_angle  =         4.7178 
E_dihed  =         0.4681 E_impro  =         0.0000 E_vdwl   =       714.7146 
E_coul   =     14736.4908 E_long   =    -19425.5555 Press    =      -771.4304 
Volume   =     10970.8851 
SHAKE stats (type/ave/delta) on step 400000
  2 1.09004 5.15328e-08
  4 0.945032 0
[...]
  6 109.47 0.00040718
---------------- Step  2335000 ----- CPU =   6448.1303 (sec) ----------------
TotEng   =     -3383.0887 KinEng   =       614.2363 Temp     =       283.5737 
PotEng   =     -3997.3251 E_bond   =         1.2016 E_angle  =         4.0322 
E_dihed  =         0.6600 E_impro  =         0.0000 E_vdwl   =       769.4408 
E_coul   =     14653.4413 E_long   =    -19426.1009 Press    =       334.3926 
Volume   =     10866.6424 
SHAKE stats (type/ave/delta) on step 2340000
  2 1.09012 9.85782e-07
  4 0.945105 0
  5 1.00011 5.97076e-06
  6 109.47 0.000547245
---------------- Step  2340000 ----- CPU =   6461.6318 (sec) ----------------
TotEng   =     -3361.2545 KinEng   =       619.2257 Temp     =       285.8771 
PotEng   =     -3980.4802 E_bond   =         1.0225 E_angle  =         4.5111 
E_dihed  =         0.0748 E_impro  =         0.0000 E_vdwl   =       777.0857 
E_coul   =     14657.1055 E_long   =    -19420.2797 Press    =       169.5672 
Volume   =     11090.1814 
SHAKE stats (type/ave/delta) on step 2345000
  2 1.09011 1.58251e-06
  4 0.945094 0
  5 1.0001 5.4087e-06
  6 109.47 0.0004773
---------------- Step  2345000 ----- CPU =   6475.6563 (sec) ----------------
TotEng   =     -3301.7426 KinEng   =       671.2259 Temp     =       309.8840 
PotEng   =     -3972.9685 E_bond   =         0.9926 E_angle  =         8.2257 
E_dihed  =         0.2129 E_impro  =         0.0000 E_vdwl   =       746.1827 
E_coul   =     14695.1248 E_long   =    -19423.7072 Press    =       160.0674 
Volume   =     10949.9987 
SHAKE stats (type/ave/delta) on step 2350000
  2 1.09003 8.89733e-07
  4 0.945029 0
  5 1.00003 5.27458e-06
  6 109.47 0.000352062
---------------- Step  2350000 ----- CPU =   6489.7962 (sec) ----------------
TotEng   =     -3397.6792 KinEng   =       603.0335 Temp     =       278.4017 
PotEng   =     -4000.7128 E_bond   =         0.1533 E_angle  =         5.9257 
E_dihed  =         0.8308 E_impro  =         0.0000 E_vdwl   =       775.3867 
E_coul   =     14639.4459 E_long   =    -19422.4551 Press    =       -75.9270 
Volume   =     11115.4133 
SHAKE stats (type/ave/delta) on step 2355000
  2 1.08985 5.58822e-06
  4 0.94487 0
  5 0.999864 1.01138e-05
  6 109.47 0.000968264
---------------- Step  2355000 ----- CPU =   6503.2445 (sec) ----------------
TotEng   =     -3267.3255 KinEng   =       678.7704 Temp     =       313.3671 
PotEng   =     -3946.0958 E_bond   =         0.3442 E_angle  =         5.9912 
E_dihed  =         0.4639 E_impro  =         0.0000 E_vdwl   =       719.7934 
E_coul   =     14752.5124 E_long   =    -19425.2009 Press    =      -737.2510 
Volume   =     11174.9105 
SHAKE stats (type/ave/delta) on step 2360000
  2 1.09 4.96593e-07
  4 0.944998 0
  5 0.999999 4.66994e-06
  6 109.47 0.000402474
---------------- Step  2360000 ----- CPU =   6517.0537 (sec) ----------------
TotEng   =     -3337.5712 KinEng   =       646.1550 Temp     =       298.3096 
PotEng   =     -3983.7263 E_bond   =         1.1546 E_angle  =         6.1132 
E_dihed  =         1.8307 E_impro  =         0.0000 E_vdwl   =       763.0161 
E_coul   =     14667.5289 E_long   =    -19423.3698 Press    =      -465.0532 
Volume   =     11105.0139 
SHAKE stats (type/ave/delta) on step 2365000
  2 1.08982 3.62206e-07
  4 0.944841 0
  5 0.999833 4.78625e-06
  6 109.47 0.000354747
---------------- Step  2365000 ----- CPU =   6531.0610 (sec) ----------------
TotEng   =     -3380.5327 KinEng   =       631.8079 Temp     =       291.6860 
PotEng   =     -4012.3406 E_bond   =         0.4241 E_angle  =         6.4320 
E_dihed  =         0.3953 E_impro  =         0.0000 E_vdwl   =       752.9164 
E_coul   =     14650.2523 E_long   =    -19422.7608 Press    =      -140.1942 
Volume   =     10826.8778 
SHAKE stats (type/ave/delta) on step 2370000
  2 1.09006 9.63685e-07
  4 0.94505 0
  5 1.00005 5.43592e-06
  6 109.47 0.000544726
---------------- Step  2370000 ----- CPU =   6544.8197 (sec) ----------------
TotEng   =     -3351.0310 KinEng   =       629.4941 Temp     =       290.6177 
PotEng   =     -3980.5251 E_bond   =         0.1191 E_angle  =         7.7931 
E_dihed  =         1.3025 E_impro  =         0.0000 E_vdwl   =       714.4553 
E_coul   =     14717.9030 E_long   =    -19422.0981 Press    =      -661.0479 
Volume   =     10793.6855 
SHAKE stats (type/ave/delta) on step 2375000
  2 1.09006 2.48639e-06
  4 0.94505 0
  5 1.00005 6.54465e-06
  6 109.47 0.000870246
---------------- Step  2375000 ----- CPU =   6558.5240 (sec) ----------------
TotEng   =     -3325.5119 KinEng   =       669.2130 Temp     =       308.9547 
PotEng   =     -3994.7248 E_bond   =         0.2917 E_angle  =         6.2777 
E_dihed  =         0.3393 E_impro  =         0.0000 E_vdwl   =       751.0634 
E_coul   =     14673.8011 E_long   =    -19426.4980 Press    =      -687.6670 
Volume   =     11098.5940 
SHAKE stats (type/ave/delta) on step 2380000
  2 1.09 5.12017e-06
  4 0.945002 0
  5 1 1.13318e-05
  6 109.47 0.000932384
---------------- Step  2380000 ----- CPU =   6571.3969 (sec) ----------------
TotEng   =     -3355.1634 KinEng   =       629.1549 Temp     =       290.4611 
PotEng   =     -3984.3183 E_bond   =         0.1040 E_angle  =         4.1786 
E_dihed  =         2.6587 E_impro  =         0.0000 E_vdwl   =       817.3893 
E_coul   =     14612.0736 E_long   =    -19420.7225 Press    =      1826.9347 
Volume   =     10634.7976 
SHAKE stats (type/ave/delta) on step 2385000
  2 1.09003 5.03221e-06
  4 0.945022 0
  5 1.00003 1.34607e-05
  6 109.47 0.00176099
---------------- Step  2385000 ----- CPU =   6584.1263 (sec) ----------------
TotEng   =     -3365.4473 KinEng   =       635.0173 Temp     =       293.1676 
PotEng   =     -4000.4645 E_bond   =         1.2714 E_angle  =         5.6135 
E_dihed  =         0.9800 E_impro  =         0.0000 E_vdwl   =       821.6513 
E_coul   =     14594.9310 E_long   =    -19424.9117 Press    =      1039.7417 
Volume   =     11041.3372 
SHAKE stats (type/ave/delta) on step 2390000
  2 1.08998 3.77434e-07
  4 0.944984 0
  5 0.999985 4.44608e-06
  6 109.47 0.000416717
---------------- Step  2390000 ----- CPU =   6597.2317 (sec) ----------------
TotEng   =     -3327.8168 KinEng   =       650.4044 Temp     =       300.2714 
PotEng   =     -3978.2212 E_bond   =         0.9427 E_angle  =         2.3742 
E_dihed  =         0.1292 E_impro  =         0.0000 E_vdwl   =       755.1935 
E_coul   =     14687.0369 E_long   =    -19423.8976 Press    =      -360.1124 
Volume   =     11131.5849 
SHAKE stats (type/ave/delta) on step 2395000
  2 1.09008 2.7524e-06
  4 0.945065 0
  5 1.00007 5.15437e-06
  6 109.47 0.000536599
---------------- Step  2395000 ----- CPU =   6610.3492 (sec) ----------------
TotEng   =     -3336.8118 KinEng   =       664.7628 Temp     =       306.9002 
PotEng   =     -4001.5746 E_bond   =         3.6531 E_angle  =         7.5567 
E_dihed  =         0.2771 E_impro  =         0.0000 E_vdwl   =       756.5793 
E_coul   =     14654.6175 E_long   =    -19424.2584 Press    =      -843.0370 
Volume   =     11163.4663 
SHAKE stats (type/ave/delta) on step 2400000
  2 1.09 1.80803e-06
  4 0.944997 0
  5 0.999998 7.7382e-06
  6 109.47 0.000642967
---------------- Step  2400000 ----- CPU =   6623.3704 (sec) ----------------
TotEng   =     -3315.6386 KinEng   =       680.0867 Temp     =       313.9747 
PotEng   =     -3995.7253 E_bond   =         0.2114 E_angle  =         4.6412 
E_dihed  =         0.9688 E_impro  =         0.0000 E_vdwl   =       709.7893 
E_coul   =     14712.5739 E_long   =    -19423.9100 Press    =     -1520.7682 
Volume   =     11172.8050 
SHAKE stats (type/ave/delta) on step 2405000
  2 1.08994 3.05119e-06
  4 0.944945 0
  5 0.999942 8.62944e-06
  6 109.47 0.000582025
---------------- Step  2405000 ----- CPU =   6637.1217 (sec) ----------------
TotEng   =     -3355.3886 KinEng   =       639.4100 Temp     =       295.1956 
PotEng   =     -3994.7985 E_bond   =         0.6087 E_angle  =         3.5637 
E_dihed  =         0.7782 E_impro  =         0.0000 E_vdwl   =       732.4546 
E_coul   =     14691.0118 E_long   =    -19423.2155 Press    =      -845.4104 
Volume   =     11057.5063 
SHAKE stats (type/ave/delta) on step 2410000
  2 1.0899 9.42467e-07
  4 0.944913 0
  5 0.999909 4.51461e-06
  6 109.47 0.000432766
---------------- Step  2410000 ----- CPU =   6650.8175 (sec) ----------------
TotEng   =     -3336.3495 KinEng   =       626.5427 Temp     =       289.2552 
PotEng   =     -3962.8922 E_bond   =         0.2881 E_angle  =         3.6532 
E_dihed  =         0.5578 E_impro  =         0.0000 E_vdwl   =       772.9855 
E_coul   =     14681.5354 E_long   =    -19421.9123 Press    =       117.1623 
Volume   =     11219.8118 
SHAKE stats (type/ave/delta) on step 2415000
  2 1.09005 5.88664e-07
  4 0.945043 0
  5 1.00005 5.97307e-06
  6 109.47 0.000446329
---------------- Step  2415000 ----- CPU =   6664.4517 (sec) ----------------
TotEng   =     -3311.4116 KinEng   =       660.0922 Temp     =       304.7439 
PotEng   =     -3971.5038 E_bond   =         0.5841 E_angle  =         6.4783 
E_dihed  =         0.4270 E_impro  =         0.0000 E_vdwl   =       697.9880 
E_coul   =     14746.5564 E_long   =    -19423.5376 Press    =     -1197.5232 
Volume   =     11041.4631 
SHAKE stats (type/ave/delta) on step 2420000
  2 1.08995 1.58993e-07
  4 0.944958 0
  5 0.999957 4.18379e-06
  6 109.47 0.000382502
---------------- Step  2420000 ----- CPU =   6678.0692 (sec) ----------------
TotEng   =     -3365.4413 KinEng   =       643.2397 Temp     =       296.9637 
PotEng   =     -4008.6811 E_bond   =         0.1081 E_angle  =         3.3923 
E_dihed  =         0.7814 E_impro  =         0.0000 E_vdwl   =       769.2013 
E_coul   =     14641.9557 E_long   =    -19424.1198 Press    =       -17.8843 
Volume   =     10945.1047 
SHAKE stats (type/ave/delta) on step 2425000
  2 1.08988 2.49337e-07
  4 0.944892 0
  5 0.999887 3.86638e-06
  6 109.47 0.000360468
---------------- Step  2425000 ----- CPU =   6691.9808 (sec) ----------------
TotEng   =     -3366.4729 KinEng   =       644.3934 Temp     =       297.4963 
PotEng   =     -4010.8662 E_bond   =         0.2913 E_angle  =         3.4230 
E_dihed  =         0.4588 E_impro  =         0.0000 E_vdwl   =       763.1252 
E_coul   =     14644.9813 E_long   =    -19423.1458 Press    =      -612.9350 
Volume   =     11238.6305 
SHAKE stats (type/ave/delta) on step 2430000
  2 1.08998 2.82477e-06
  4 0.944981 0
  5 0.99998 1.43169e-05
  6 109.47 0.000940164
---------------- Step  2430000 ----- CPU =   6705.9911 (sec) ----------------
TotEng   =     -3371.4125 KinEng   =       640.3225 Temp     =       295.6169 
PotEng   =     -4011.7349 E_bond   =         0.0412 E_angle  =         4.0905 
E_dihed  =         0.2691 E_impro  =         0.0000 E_vdwl   =       774.6267 
E_coul   =     14631.9879 E_long   =    -19422.7503 Press    =       -12.9664 
Volume   =     10971.9059 
SHAKE stats (type/ave/delta) on step 2435000
  2 1.08998 1.23771e-06
  4 0.94498 0
  5 0.99998 7.14157e-06
  6 109.47 0.000702498
---------------- Step  2435000 ----- CPU =   6719.9480 (sec) ----------------
TotEng   =     -3283.2528 KinEng   =       663.3915 Temp     =       306.2671 
PotEng   =     -3946.6444 E_bond   =         0.0564 E_angle  =         7.5997 
E_dihed  =         0.4040 E_impro  =         0.0000 E_vdwl   =       731.5317 
E_coul   =     14735.5305 E_long   =    -19421.7667 Press    =      -565.3851 
Volume   =     11126.0980 
SHAKE stats (type/ave/delta) on step 2440000
  2 1.08999 7.38488e-07
  4 0.944993 0
  5 0.999993 4.96445e-06
  6 109.47 0.000382816
---------------- Step  2440000 ----- CPU =   6734.1109 (sec) ----------------
TotEng   =     -3345.5709 KinEng   =       661.6158 Temp     =       305.4473 
PotEng   =     -4007.1867 E_bond   =         1.3465 E_angle  =         3.0152 
E_dihed  =         0.3960 E_impro  =         0.0000 E_vdwl   =       742.0271 
E_coul   =     14669.9290 E_long   =    -19423.9005 Press    =      -611.1411 
Volume   =     11171.1728 
SHAKE stats (type/ave/delta) on step 2445000
  2 1.08994 1.90964e-06
  4 0.944946 0
  5 0.999944 4.65283e-06
  6 109.47 0.000424446
---------------- Step  2445000 ----- CPU =   6748.2526 (sec) ----------------
TotEng   =     -3314.0969 KinEng   =       671.3844 Temp     =       309.9572 
PotEng   =     -3985.4813 E_bond   =         0.5732 E_angle  =         4.3742 
E_dihed  =         1.3156 E_impro  =         0.0000 E_vdwl   =       733.8267 
E_coul   =     14700.6016 E_long   =    -19426.1725 Press    =      -540.7247 
Volume   =     11038.1239 
SHAKE stats (type/ave/delta) on step 2450000
  2 1.08994 1.9052e-06
  4 0.944951 0
  5 0.999949 6.49032e-06
  6 109.47 0.000664681
---------------- Step  2450000 ----- CPU =   6762.3449 (sec) ----------------
TotEng   =     -3417.1417 KinEng   =       638.1742 Temp     =       294.6251 
PotEng   =     -4055.3159 E_bond   =         2.2392 E_angle  =         2.3272 
E_dihed  =         0.2960 E_impro  =         0.0000 E_vdwl   =       749.5834 
E_coul   =     14614.8942 E_long   =    -19424.6559 Press    =      -505.7268 
Volume   =     10572.3214 
SHAKE stats (type/ave/delta) on step 2455000
  2 1.09008 7.94073e-07
  4 0.945067 0
  5 1.00007 4.87648e-06
  6 109.47 0.00041232
---------------- Step  2455000 ----- CPU =   6776.2610 (sec) ----------------
TotEng   =     -3350.5991 KinEng   =       657.0057 Temp     =       303.3190 
PotEng   =     -4007.6049 E_bond   =         0.1319 E_angle  =         7.7946 
E_dihed  =         0.1045 E_impro  =         0.0000 E_vdwl   =       725.8228 
E_coul   =     14682.2975 E_long   =    -19423.7562 Press    =      -817.5068 
Volume   =     10968.6290 
SHAKE stats (type/ave/delta) on step 2460000
  2 1.09001 1.3253e-06
  4 0.945009 0
  5 1.00001 7.26487e-06
  6 109.47 0.000644366
---------------- Step  2460000 ----- CPU =   6790.2910 (sec) ----------------
TotEng   =     -3334.2598 KinEng   =       659.5347 Temp     =       304.4865 
PotEng   =     -3993.7945 E_bond   =         0.0063 E_angle  =         4.0285 
E_dihed  =         0.1674 E_impro  =         0.0000 E_vdwl   =       737.4167 
E_coul   =     14690.5930 E_long   =    -19426.0064 Press    =      -115.3560 
Volume   =     10828.5205 
SHAKE stats (type/ave/delta) on step 2465000
  2 1.08996 2.45042e-07
  4 0.944969 0
  5 0.999968 4.78048e-06
  6 109.47 0.000372669
---------------- Step  2465000 ----- CPU =   6804.7459 (sec) ----------------
TotEng   =     -3397.2228 KinEng   =       622.7161 Temp     =       287.4885 
PotEng   =     -4019.9388 E_bond   =         0.2339 E_angle  =         1.9393 
E_dihed  =         1.0009 E_impro  =         0.0000 E_vdwl   =       773.4731 
E_coul   =     14629.3163 E_long   =    -19425.9024 Press    =      -118.9726 
Volume   =     11011.4260 
SHAKE stats (type/ave/delta) on step 2470000
  2 1.09013 6.10405e-07
  4 0.945116 0
  5 1.00012 4.03608e-06
  6 109.47 0.000345279
---------------- Step  2470000 ----- CPU =   6818.7964 (sec) ----------------
TotEng   =     -3364.2200 KinEng   =       648.5234 Temp     =       299.4030 
PotEng   =     -4012.7434 E_bond   =         0.7186 E_angle  =         2.7851 
E_dihed  =         0.6331 E_impro  =         0.0000 E_vdwl   =       766.2284 
E_coul   =     14640.3496 E_long   =    -19423.4581 Press    =       -38.1313 
Volume   =     11076.0137 
SHAKE stats (type/ave/delta) on step 2475000
  2 1.09008 2.28691e-06
  4 0.94507 0
  5 1.00007 8.60362e-06
  6 109.47 0.00091519
---------------- Step  2475000 ----- CPU =   6832.9783 (sec) ----------------
TotEng   =     -3386.2928 KinEng   =       656.7485 Temp     =       303.2002 
PotEng   =     -4043.0413 E_bond   =         1.0418 E_angle  =         3.2174 
E_dihed  =         1.5773 E_impro  =         0.0000 E_vdwl   =       795.3497 
E_coul   =     14578.7103 E_long   =    -19422.9378 Press    =       204.7585 
Volume   =     11023.6401 
SHAKE stats (type/ave/delta) on step 2480000
  2 1.09004 2.24091e-06
  4 0.945035 0
  5 1.00004 5.54618e-06
  6 109.47 0.000618618
---------------- Step  2480000 ----- CPU =   6846.9840 (sec) ----------------
TotEng   =     -3364.3760 KinEng   =       642.8052 Temp     =       296.7631 
PotEng   =     -4007.1813 E_bond   =         0.4514 E_angle  =         7.8658 
E_dihed  =         0.9305 E_impro  =         0.0000 E_vdwl   =       767.1542 
E_coul   =     14642.7765 E_long   =    -19426.3597 Press    =      -164.0769 
Volume   =     10956.0052 
SHAKE stats (type/ave/delta) on step 2485000
  2 1.08996 4.28158e-06
  4 0.944969 0
  5 0.999967 1.055e-05
  6 109.47 0.00105784
---------------- Step  2485000 ----- CPU =   6861.4182 (sec) ----------------
TotEng   =     -3341.4431 KinEng   =       652.9984 Temp     =       301.4689 
PotEng   =     -3994.4415 E_bond   =         0.8768 E_angle  =         6.3071 
E_dihed  =         0.1309 E_impro  =         0.0000 E_vdwl   =       787.0101 
E_coul   =     14632.8090 E_long   =    -19421.5754 Press    =       596.3624 
Volume   =     10761.4908 
SHAKE stats (type/ave/delta) on step 2490000
  2 1.09005 2.51681e-06
  4 0.945042 0
  5 1.00005 7.63459e-06
  6 109.47 0.000647941
---------------- Step  2490000 ----- CPU =   6875.3165 (sec) ----------------
TotEng   =     -3369.5733 KinEng   =       669.0250 Temp     =       308.8679 
PotEng   =     -4038.5983 E_bond   =         1.2887 E_angle  =         8.0536 
E_dihed  =         0.5297 E_impro  =         0.0000 E_vdwl   =       815.4762 
E_coul   =     14561.9775 E_long   =    -19425.9240 Press    =       577.4990 
Volume   =     10885.9209 
SHAKE stats (type/ave/delta) on step 2495000
  2 1.08996 3.22984e-06
  4 0.944967 0
  5 0.999966 4.3662e-06
  6 109.47 0.000455917
---------------- Step  2495000 ----- CPU =   6889.2944 (sec) ----------------
TotEng   =     -3285.3453 KinEng   =       702.9399 Temp     =       324.5254 
PotEng   =     -3988.2852 E_bond   =         2.1828 E_angle  =         7.4063 
E_dihed  =         1.4105 E_impro  =         0.0000 E_vdwl   =       762.2896 
E_coul   =     14662.9358 E_long   =    -19424.5103 Press    =      -452.1495 
Volume   =     11029.6019 
SHAKE stats (type/ave/delta) on step 2500000
  2 1.09003 4.3299e-07
  4 0.945025 0
  5 1.00003 4.15242e-06
  6 109.47 0.000425429
---------------- Step  2500000 ----- CPU =   6903.2472 (sec) ----------------
TotEng   =     -3381.7302 KinEng   =       645.2925 Temp     =       297.9113 
PotEng   =     -4027.0227 E_bond   =         0.7381 E_angle  =         4.7272 
E_dihed  =         0.6354 E_impro  =         0.0000 E_vdwl   =       740.3778 
E_coul   =     14649.7183 E_long   =    -19423.2194 Press    =      -665.6412 
Volume   =     10853.0730 
Loop time of 6903.25 on 8 procs for 2500000 steps with 1090 atoms

Pair  time (%) = 3623.8 (52.4942)
Bond  time (%) = 9.33101 (0.135168)
Kspce time (%) = 1282.46 (18.5777)
Neigh time (%) = 486.542 (7.04801)
Comm  time (%) = 635.126 (9.2004)
Outpt time (%) = 0.22723 (0.00329163)
Other time (%) = 865.755 (12.5413)

FFT time (% of Kspce) = 160.193 (12.491)
FFT Gflps 3d (1d only) = 4.02071 53.1534

Nlocal:    136.25 ave 150 max 121 min
Histogram: 1 0 0 1 2 0 3 0 0 1
Nghost:    4165.25 ave 4239 max 4098 min
Histogram: 1 0 1 1 1 2 1 0 0 1
Neighs:    49551 ave 54526 max 42099 min
Histogram: 1 1 0 0 1 0 1 1 2 1

Total # of neighbors = 396408
Ave neighs/atom = 363.677
Ave special neighs/atom = 2.05872
Neighbor list builds = 206292
Dangerous builds = 32940

write_restart restart.*.lmp
PPPM initialization ...
  G vector (1/distance) = 0.267798
  grid = 12 12 12
  stencil order = 5
  estimated absolute RMS force accuracy = 0.0257963
  estimated relative force accuracy = 7.76847e-05
  using double precision FFTs
  3d grid and FFT values/proc = 2197 288
write_data data.*.lmp
PPPM initialization ...
  G vector (1/distance) = 0.267798
  grid = 12 12 12
  stencil order = 5
  estimated absolute RMS force accuracy = 0.0257963
  estimated relative force accuracy = 7.76847e-05
  using double precision FFTs
  3d grid and FFT values/proc = 2197 288
