created by fftool

649 atoms
432 bonds
216 angles

3 atom types
1 bond types
1 angle types

-11.355969 11.355969 xlo xhi
-11.355969 11.355969 ylo yhi
-11.355969 11.355969 zlo zhi

Masses

   1   20.180  # Ne
   2    1.008  # Hw
   3   15.999  # Ow

Bond Coeffs

   1   517.6  1.000  # Ow-Hw

Angle Coeffs

   1   37.95  109.47  # Hw-Ow-Hw

Atoms

      1       1    1  0.000 -9.402201e+00  9.416386e+00  9.407683e+00  # Ne     neon
      2       2    2  0.424  4.894388e+00  4.411579e+00 -5.909876e+00  # Hw     SPCE
      3       2    3 -0.848  3.987757e+00  3.993378e+00 -5.853941e+00  # Ow     SPCE
      4       2    2  0.424  3.733564e+00  3.627681e+00 -6.749290e+00  # Hw     SPCE
      5       3    2  0.424 -3.659925e+00 -2.531964e+00 -6.549871e+00  # Hw     SPCE
      6       3    3 -0.848 -4.572478e+00 -2.661319e+00 -6.161911e+00  # Ow     SPCE
      7       3    2  0.424 -4.492924e+00 -3.062823e+00 -5.249515e+00  # Hw     SPCE
      8       4    2  0.424  7.396350e-01  9.488330e-01 -3.467975e+00  # Hw     SPCE
      9       4    3 -0.848 -8.428000e-03  9.227870e-01 -4.131091e+00  # Ow     SPCE
     10       4    2  0.424 -5.833120e-01  1.733033e+00 -4.017034e+00  # Hw     SPCE
     11       5    2  0.424  8.150106e+00 -8.348929e+00  7.111893e+00  # Hw     SPCE
     12       5    3 -0.848  8.412881e+00 -9.302413e+00  6.964186e+00  # Ow     SPCE
     13       5    2  0.424  9.399985e+00 -9.399646e+00  7.091351e+00  # Hw     SPCE
     14       6    2  0.424  1.725664e+00  9.398837e+00 -9.350816e+00  # Hw     SPCE
     15       6    3 -0.848  2.543139e+00  8.822922e+00 -9.358351e+00  # Ow     SPCE
     16       6    2  0.424  3.357821e+00  9.401137e+00 -9.402613e+00  # Hw     SPCE
     17       7    2  0.424 -9.015307e+00  2.184900e+00 -6.332870e-01  # Hw     SPCE
     18       7    3 -0.848 -9.401949e+00  1.713517e+00 -1.425944e+00  # Ow     SPCE
     19       7    2  0.424 -9.399898e+00  2.329456e+00 -2.213735e+00  # Hw     SPCE
     20       8    2  0.424  8.960958e+00  3.476210e+00 -3.639509e+00  # Hw     SPCE
     21       8    3 -0.848  9.403311e+00  4.366038e+00 -3.527572e+00  # Ow     SPCE
     22       8    2  0.424  8.705799e+00  5.080569e+00 -3.473523e+00  # Hw     SPCE
     23       9    2  0.424  4.539732e+00 -5.384705e+00 -9.400040e+00  # Hw     SPCE
     24       9    3 -0.848  5.185055e+00 -4.621503e+00 -9.367157e+00  # Ow     SPCE
     25       9    2  0.424  6.120343e+00 -4.975335e+00 -9.373359e+00  # Hw     SPCE
     26      10    2  0.424 -2.197010e+00  2.813991e+00 -9.376691e+00  # Hw     SPCE
     27      10    3 -0.848 -1.221276e+00  2.651366e+00 -9.230074e+00  # Ow     SPCE
     28      10    2  0.424 -7.131430e-01  3.495245e+00 -9.402320e+00  # Hw     SPCE
     29      11    2  0.424  2.367642e+00  9.295627e+00 -5.437963e+00  # Hw     SPCE
     30      11    3 -0.848  2.670067e+00  9.410296e+00 -6.384214e+00  # Ow     SPCE
     31      11    2  0.424  3.668285e+00  9.364878e+00 -6.422930e+00  # Hw     SPCE
     32      12    2  0.424  9.402827e+00 -5.299134e+00  4.103018e+00  # Hw     SPCE
     33      12    3 -0.848  8.910239e+00 -6.148967e+00  3.915558e+00  # Ow     SPCE
     34      12    2  0.424  9.401653e+00 -6.916716e+00  4.326743e+00  # Hw     SPCE
     35      13    2  0.424 -2.520864e+00 -4.912102e+00 -9.367894e+00  # Hw     SPCE
     36      13    3 -0.848 -2.373540e+00 -3.924948e+00 -9.306073e+00  # Ow     SPCE
     37      13    2  0.424 -3.249913e+00 -3.451104e+00 -9.392338e+00  # Hw     SPCE
     38      14    2  0.424 -8.025785e+00 -9.401496e+00  9.239171e+00  # Hw     SPCE
     39      14    3 -0.848 -7.460116e+00 -9.313654e+00  8.419231e+00  # Ow     SPCE
     40      14    2  0.424 -8.035896e+00 -9.400220e+00  7.606223e+00  # Hw     SPCE
     41      15    2  0.424 -4.469143e+00  6.277330e+00 -9.402030e+00  # Hw     SPCE
     42      15    3 -0.848 -5.156193e+00  7.003889e+00 -9.393404e+00  # Ow     SPCE
     43      15    2  0.424 -5.626463e+00  7.007470e+00 -8.510889e+00  # Hw     SPCE
     44      16    2  0.424  5.206022e+00 -3.817880e+00  2.846586e+00  # Hw     SPCE
     45      16    3 -0.848  5.668573e+00 -4.702313e+00  2.784735e+00  # Ow     SPCE
     46      16    2  0.424  6.650318e+00 -4.557141e+00  2.661840e+00  # Hw     SPCE
     47      17    2  0.424  3.893007e+00 -1.116717e+00  7.390890e+00  # Hw     SPCE
     48      17    3 -0.848  3.765718e+00 -3.048850e-01  7.960738e+00  # Ow     SPCE
     49      17    2  0.424  2.871087e+00  9.921600e-02  7.770116e+00  # Hw     SPCE
     50      18    2  0.424 -6.745656e+00  2.279310e-01 -7.412530e-01  # Hw     SPCE
     51      18    3 -0.848 -7.316457e+00 -3.146930e-01 -1.250190e-01  # Ow     SPCE
     52      18    2  0.424 -7.994794e+00 -8.205600e-01 -6.578960e-01  # Hw     SPCE
     53      19    2  0.424  4.154594e+00  9.400266e+00 -1.708690e-01  # Hw     SPCE
     54      19    3 -0.848  5.047492e+00  9.301347e+00  2.683880e-01  # Ow     SPCE
     55      19    2  0.424  4.944940e+00  9.401024e+00  1.258109e+00  # Hw     SPCE
     56      20    2  0.424  3.958900e-01  9.400447e+00  6.355154e+00  # Hw     SPCE
     57      20    3 -0.848  1.314030e+00  9.007176e+00  6.403693e+00  # Ow     SPCE
     58      20    2  0.424  1.800350e+00  9.391843e+00  7.188246e+00  # Hw     SPCE
     59      21    2  0.424  9.336625e+00 -4.204691e+00  4.256420e-01  # Hw     SPCE
     60      21    3 -0.848  9.400040e+00 -4.598296e+00 -4.914480e-01  # Ow     SPCE
     61      21    2  0.424  8.905591e+00 -4.017671e+00 -1.138283e+00  # Hw     SPCE
     62      22    2  0.424 -4.592196e+00 -9.086376e+00  9.265712e+00  # Hw     SPCE
     63      22    3 -0.848 -3.644183e+00 -9.375123e+00  9.399487e+00  # Ow     SPCE
     64      22    2  0.424 -3.177087e+00 -9.405308e+00  8.515796e+00  # Hw     SPCE
     65      23    2  0.424  2.345725e+00 -9.400590e+00 -5.611677e+00  # Hw     SPCE
     66      23    3 -0.848  2.160968e+00 -9.166780e+00 -4.657110e+00  # Ow     SPCE
     67      23    2  0.424  1.214512e+00 -9.400086e+00 -4.433975e+00  # Hw     SPCE
     68      24    2  0.424 -9.399965e+00 -6.058068e+00  7.815678e+00  # Hw     SPCE
     69      24    3 -0.848 -9.372704e+00 -6.846125e+00  8.430676e+00  # Ow     SPCE
     70      24    2  0.424 -9.401530e+00 -6.530034e+00  9.378967e+00  # Hw     SPCE
     71      25    2  0.424  1.674797e+00 -1.757993e+00 -5.064557e+00  # Hw     SPCE
     72      25    3 -0.848  2.278464e+00 -2.528810e+00 -4.861019e+00  # Ow     SPCE
     73      25    2  0.424  2.493457e+00 -2.534978e+00 -3.884424e+00  # Hw     SPCE
     74      26    2  0.424 -9.388659e+00  2.386467e+00 -5.980157e+00  # Hw     SPCE
     75      26    3 -0.848 -9.170982e+00  1.598939e+00 -5.403600e+00  # Ow     SPCE
     76      26    2  0.424 -9.401554e+00  7.560410e-01 -5.889768e+00  # Hw     SPCE
     77      27    2  0.424 -6.508920e+00  1.240736e+00  6.078175e+00  # Hw     SPCE
     78      27    3 -0.848 -6.704243e+00  1.715749e+00  6.936203e+00  # Ow     SPCE
     79      27    2  0.424 -5.978560e+00  1.522869e+00  7.596643e+00  # Hw     SPCE
     80      28    2  0.424 -1.826270e+00 -8.521507e+00  2.677335e+00  # Hw     SPCE
     81      28    3 -0.848 -2.156243e+00 -9.417065e+00  2.975818e+00  # Ow     SPCE
     82      28    2  0.424 -3.153412e+00 -9.397630e+00  3.048451e+00  # Hw     SPCE
     83      29    2  0.424 -6.455452e+00  4.120560e+00 -7.871170e-01  # Hw     SPCE
     84      29    3 -0.848 -6.177047e+00  3.493665e+00 -5.945400e-02  # Ow     SPCE
     85      29    2  0.424 -5.182549e+00  3.521010e+00  4.166700e-02  # Hw     SPCE
     86      30    2  0.424  3.055339e+00  5.960382e+00  9.396013e+00  # Hw     SPCE
     87      30    3 -0.848  3.419843e+00  6.891534e+00  9.405660e+00  # Ow     SPCE
     88      30    2  0.424  2.663650e+00  7.545677e+00  9.389271e+00  # Hw     SPCE
     89      31    2  0.424 -4.167503e+00 -3.710161e+00  5.629598e+00  # Hw     SPCE
     90      31    3 -0.848 -3.647859e+00 -3.916191e+00  6.458767e+00  # Ow     SPCE
     91      31    2  0.424 -3.575436e+00 -4.907448e+00  6.569059e+00  # Hw     SPCE
     92      32    2  0.424 -4.820954e+00  6.231314e+00  6.571358e+00  # Hw     SPCE
     93      32    3 -0.848 -5.695113e+00  6.228395e+00  6.085727e+00  # Ow     SPCE
     94      32    2  0.424 -5.548381e+00  6.496725e+00  5.133640e+00  # Hw     SPCE
     95      33    2  0.424  1.456310e+00  3.820463e+00  1.210274e+00  # Hw     SPCE
     96      33    3 -0.848  1.363072e+00  2.835158e+00  1.067164e+00  # Ow     SPCE
     97      33    2  0.424  3.939540e-01  2.598788e+00  9.968880e-01  # Hw     SPCE
     98      34    2  0.424  3.743952e+00  1.660982e+00 -3.983540e+00  # Hw     SPCE
     99      34    3 -0.848  3.884519e+00  8.617000e-01 -4.567826e+00  # Ow     SPCE
    100      34    2  0.424  3.336868e+00  9.561100e-01 -5.399189e+00  # Hw     SPCE
    101      35    2  0.424  3.389029e+00  2.599426e+00  6.195915e+00  # Hw     SPCE
    102      35    3 -0.848  2.582029e+00  3.173708e+00  6.333578e+00  # Ow     SPCE
    103      35    2  0.424  1.785726e+00  2.593838e+00  6.505776e+00  # Hw     SPCE
    104      36    2  0.424 -6.193530e+00 -1.819240e+00  9.393875e+00  # Hw     SPCE
    105      36    3 -0.848 -5.799866e+00 -2.605682e+00  8.917916e+00  # Ow     SPCE
    106      36    2  0.424 -4.960708e+00 -2.890045e+00  9.381544e+00  # Hw     SPCE
    107      37    2  0.424  6.236733e+00 -6.200500e-01  3.552583e+00  # Hw     SPCE
    108      37    3 -0.848  6.067285e+00 -9.906150e-01  4.465802e+00  # Ow     SPCE
    109      37    2  0.424  5.082667e+00 -1.012732e+00  4.639118e+00  # Hw     SPCE
    110      38    2  0.424  7.908165e+00  1.718590e+00  4.901203e+00  # Hw     SPCE
    111      38    3 -0.848  6.970789e+00  2.019419e+00  5.076784e+00  # Ow     SPCE
    112      38    2  0.424  6.986524e+00  2.864734e+00  5.610821e+00  # Hw     SPCE
    113      39    2  0.424 -9.400117e+00 -5.060660e+00  3.889708e+00  # Hw     SPCE
    114      39    3 -0.848 -9.393090e+00 -4.182686e+00  4.368365e+00  # Ow     SPCE
    115      39    2  0.424 -9.402387e+00 -4.341236e+00  5.355672e+00  # Hw     SPCE
    116      40    2  0.424  9.404172e+00 -9.017610e-01  7.710660e-01  # Hw     SPCE
    117      40    3 -0.848  9.400267e+00  9.361000e-02  6.750300e-01  # Ow     SPCE
    118      40    2  0.424  9.347885e+00  5.155930e-01  1.580119e+00  # Hw     SPCE
    119      41    2  0.424  9.052991e+00 -1.261890e+00  4.362778e+00  # Hw     SPCE
    120      41    3 -0.848  9.404245e+00 -1.925100e+00  3.701890e+00  # Ow     SPCE
    121      41    2  0.424  8.638716e+00 -2.392266e+00  3.259486e+00  # Hw     SPCE
    122      42    2  0.424  9.400609e+00  3.110017e+00 -8.975823e+00  # Hw     SPCE
    123      42    3 -0.848  8.832116e+00  2.291427e+00 -9.057841e+00  # Ow     SPCE
    124      42    2  0.424  9.387163e+00  1.533010e+00 -9.399491e+00  # Hw     SPCE
    125      43    2  0.424  3.066326e+00 -5.076905e+00 -6.651959e+00  # Hw     SPCE
    126      43    3 -0.848  3.893418e+00 -5.221812e+00 -6.108893e+00  # Ow     SPCE
    127      43    2  0.424  3.799737e+00 -6.063442e+00 -5.577026e+00  # Hw     SPCE
    128      44    2  0.424  6.657096e+00  5.191319e+00  9.382737e+00  # Hw     SPCE
    129      44    3 -0.848  6.386387e+00  6.153840e+00  9.399197e+00  # Ow     SPCE
    130      44    2  0.424  7.203765e+00  6.729899e+00  9.406172e+00  # Hw     SPCE
    131      45    2  0.424 -2.408289e+00 -6.641764e+00  9.393185e+00  # Hw     SPCE
    132      45    3 -0.848 -3.103562e+00 -5.923022e+00  9.395619e+00  # Ow     SPCE
    133      45    2  0.424 -2.657873e+00 -5.028231e+00  9.422258e+00  # Hw     SPCE
    134      46    2  0.424 -5.880790e-01 -3.682211e+00 -3.750137e+00  # Hw     SPCE
    135      46    3 -0.848 -1.045914e+00 -2.822111e+00 -3.525160e+00  # Ow     SPCE
    136      46    2  0.424 -1.486468e+00 -2.454824e+00 -4.344314e+00  # Hw     SPCE
    137      47    2  0.424 -6.764264e+00  6.784922e+00 -2.993606e+00  # Hw     SPCE
    138      47    3 -0.848 -6.686442e+00  7.781630e+00 -2.970838e+00  # Ow     SPCE
    139      47    2  0.424 -7.162530e+00  8.134819e+00 -2.165483e+00  # Hw     SPCE
    140      48    2  0.424 -1.655458e+00 -8.966825e+00  5.968444e+00  # Hw     SPCE
    141      48    3 -0.848 -1.284132e+00 -8.112107e+00  6.331176e+00  # Ow     SPCE
    142      48    2  0.424 -2.033192e+00 -7.477645e+00  6.521875e+00  # Hw     SPCE
    143      49    2  0.424 -7.811970e-01 -8.439886e+00 -2.408212e+00  # Hw     SPCE
    144      49    3 -0.848 -1.661037e+00 -8.481141e+00 -2.881687e+00  # Ow     SPCE
    145      49    2  0.424 -1.756651e+00 -9.369602e+00 -3.330570e+00  # Hw     SPCE
    146      50    2  0.424  4.616620e-01  1.372028e+00 -7.059767e+00  # Hw     SPCE
    147      50    3 -0.848  9.419590e-01  2.205129e+00 -6.785439e+00  # Ow     SPCE
    148      50    2  0.424  2.779190e-01  2.935789e+00 -6.626739e+00  # Hw     SPCE
    149      51    2  0.424  5.538100e-02  9.401558e+00 -2.174048e+00  # Hw     SPCE
    150      51    3 -0.848 -7.028480e-01  8.825338e+00 -2.479102e+00  # Ow     SPCE
    151      51    2  0.424 -1.491025e+00  9.400279e+00 -2.698691e+00  # Hw     SPCE
    152      52    2  0.424  6.472830e+00 -6.501991e+00  9.400909e+00  # Hw     SPCE
    153      52    3 -0.848  6.461985e+00 -5.502176e+00  9.385012e+00  # Ow     SPCE
    154      52    2  0.424  5.516209e+00 -5.178607e+00  9.413477e+00  # Hw     SPCE
    155      53    2  0.424 -2.559988e+00  2.540131e+00  3.705529e+00  # Hw     SPCE
    156      53    3 -0.848 -1.625189e+00  2.482940e+00  3.354986e+00  # Ow     SPCE
    157      53    2  0.424 -1.048864e+00  3.145863e+00  3.832879e+00  # Hw     SPCE
    158      54    2  0.424  6.468794e+00  1.006997e+00  9.288856e+00  # Hw     SPCE
    159      54    3 -0.848  6.341538e+00  1.227852e+00  8.321887e+00  # Ow     SPCE
    160      54    2  0.424  6.658670e+00  4.632440e-01  7.760816e+00  # Hw     SPCE
    161      55    2  0.424  3.514091e+00  9.400976e+00  4.402997e+00  # Hw     SPCE
    162      55    3 -0.848  3.090510e+00  8.676539e+00  3.859149e+00  # Ow     SPCE
    163      55    2  0.424  3.777134e+00  7.986262e+00  3.630975e+00  # Hw     SPCE
    164      56    2  0.424 -1.425823e+00  4.940337e+00 -4.433653e+00  # Hw     SPCE
    165      56    3 -0.848 -2.081165e+00  5.685075e+00 -4.307594e+00  # Ow     SPCE
    166      56    2  0.424 -1.589008e+00  6.551554e+00 -4.223953e+00  # Hw     SPCE
    167      57    2  0.424 -5.609702e+00 -2.561745e+00 -1.172375e+00  # Hw     SPCE
    168      57    3 -0.848 -5.901789e+00 -2.874428e+00 -2.076208e+00  # Ow     SPCE
    169      57    2  0.424 -6.740430e+00 -3.411925e+00 -1.988017e+00  # Hw     SPCE
    170      58    2  0.424 -2.907358e+00 -5.614892e+00 -4.253298e+00  # Hw     SPCE
    171      58    3 -0.848 -2.955090e+00 -5.578921e+00 -3.255085e+00  # Ow     SPCE
    172      58    2  0.424 -3.441310e+00 -4.751444e+00 -2.974244e+00  # Hw     SPCE
    173      59    2  0.424 -3.441597e+00  2.745301e+00  6.563566e+00  # Hw     SPCE
    174      59    3 -0.848 -3.190801e+00  3.713341e+00  6.562963e+00  # Ow     SPCE
    175      59    2  0.424 -2.194756e+00  3.799594e+00  6.541628e+00  # Hw     SPCE
    176      60    2  0.424  9.407153e+00 -7.785370e+00 -8.509144e+00  # Hw     SPCE
    177      60    3 -0.848  8.830580e+00 -8.598035e+00 -8.424654e+00  # Ow     SPCE
    178      60    2  0.424  9.406242e+00 -9.400031e+00 -8.265227e+00  # Hw     SPCE
    179      61    2  0.424 -6.406244e+00 -6.689056e+00  9.412605e+00  # Hw     SPCE
    180      61    3 -0.848 -6.059107e+00 -6.529252e+00  8.488506e+00  # Ow     SPCE
    181      61    2  0.424 -5.893860e+00 -5.551545e+00  8.358966e+00  # Hw     SPCE
    182      62    2  0.424  5.566956e+00 -9.398404e+00  5.988966e+00  # Hw     SPCE
    183      62    3 -0.848  4.627672e+00 -9.335707e+00  5.651603e+00  # Ow     SPCE
    184      62    2  0.424  4.626935e+00 -9.400151e+00  4.653682e+00  # Hw     SPCE
    185      63    2  0.424  2.314436e+00  1.669949e+00 -9.400426e+00  # Hw     SPCE
    186      63    3 -0.848  3.130059e+00  1.557234e+00 -8.832927e+00  # Ow     SPCE
    187      63    2  0.424  3.947376e+00  1.658361e+00 -9.400171e+00  # Hw     SPCE
    188      64    2  0.424 -1.971902e+00 -4.704810e-01  2.902133e+00  # Hw     SPCE
    189      64    3 -0.848 -1.313689e+00 -9.216070e-01  2.299438e+00  # Ow     SPCE
    190      64    2  0.424 -4.005260e-01 -8.678950e-01  2.703477e+00  # Hw     SPCE
    191      65    2  0.424 -6.957690e+00 -2.732666e+00  6.138984e+00  # Hw     SPCE
    192      65    3 -0.848 -6.931183e+00 -2.653876e+00  5.142445e+00  # Ow     SPCE
    193      65    2  0.424 -6.743735e+00 -1.705138e+00  4.887970e+00  # Hw     SPCE
    194      66    2  0.424  3.178980e-01  8.427131e+00  6.510320e-01  # Hw     SPCE
    195      66    3 -0.848  6.888550e-01  9.328058e+00  8.762460e-01  # Ow     SPCE
    196      66    2  0.424  9.798440e-01  9.339064e+00  1.832909e+00  # Hw     SPCE
    197      67    2  0.424 -1.964820e-01 -8.654037e+00  9.154103e+00  # Hw     SPCE
    198      67    3 -0.848  4.318840e-01 -9.418940e+00  9.295800e+00  # Ow     SPCE
    199      67    2  0.424  1.363081e+00 -9.070121e+00  9.401615e+00  # Hw     SPCE
    200      68    2  0.424 -6.443813e+00  3.729007e+00  4.404040e+00  # Hw     SPCE
    201      68    3 -0.848 -5.501783e+00  3.692095e+00  4.070548e+00  # Ow     SPCE
    202      68    2  0.424 -5.432710e+00  4.197247e+00  3.210286e+00  # Hw     SPCE
    203      69    2  0.424 -1.462736e+00 -3.224626e+00  4.427270e+00  # Hw     SPCE
    204      69    3 -0.848 -6.858770e-01 -3.674769e+00  4.867567e+00  # Ow     SPCE
    205      69    2  0.424 -9.492620e-01 -4.598835e+00  5.144569e+00  # Hw     SPCE
    206      70    2  0.424  7.188026e+00  7.174450e+00 -1.953770e+00  # Hw     SPCE
    207      70    3 -0.848  6.433107e+00  7.830247e+00 -1.948555e+00  # Ow     SPCE
    208      70    2  0.424  5.563173e+00  7.337078e+00 -1.948155e+00  # Hw     SPCE
    209      71    2  0.424 -9.927600e-01 -7.428493e+00 -8.583250e+00  # Hw     SPCE
    210      71    3 -0.848 -4.044450e-01 -8.204595e+00 -8.810296e+00  # Ow     SPCE
    211      71    2  0.424 -9.187670e-01 -8.863276e+00 -9.359489e+00  # Hw     SPCE
    212      72    2  0.424  4.640104e+00 -9.021742e+00  1.668824e+00  # Hw     SPCE
    213      72    3 -0.848  4.154608e+00 -8.172292e+00  1.875533e+00  # Ow     SPCE
    214      72    2  0.424  4.781386e+00 -7.528487e+00  2.314468e+00  # Hw     SPCE
    215      73    2  0.424 -3.934738e+00  2.774480e-01  9.405050e+00  # Hw     SPCE
    216      73    3 -0.848 -3.157852e+00  8.941010e-01  9.277825e+00  # Ow     SPCE
    217      73    2  0.424 -3.454387e+00  1.838083e+00  9.422621e+00  # Hw     SPCE
    218      74    2  0.424  3.920447e+00 -1.285160e+00  1.612395e+00  # Hw     SPCE
    219      74    3 -0.848  2.941369e+00 -1.469623e+00  1.526491e+00  # Ow     SPCE
    220      74    2  0.424  2.626513e+00 -1.978506e+00  2.327680e+00  # Hw     SPCE
    221      75    2  0.424  9.379768e+00 -1.445740e+00 -2.808866e+00  # Hw     SPCE
    222      75    3 -0.848  9.308479e+00 -9.304370e-01 -3.662903e+00  # Ow     SPCE
    223      75    2  0.424  9.400410e+00  4.671500e-02 -3.471269e+00  # Hw     SPCE
    224      76    2  0.424 -9.411892e+00  9.339262e+00  4.789392e+00  # Hw     SPCE
    225      76    3 -0.848 -9.294726e+00  8.367536e+00  4.584399e+00  # Ow     SPCE
    226      76    2  0.424 -9.420072e+00  7.833082e+00  5.420250e+00  # Hw     SPCE
    227      77    2  0.424 -3.098730e-01 -5.166478e+00 -1.159859e+00  # Hw     SPCE
    228      77    3 -0.848  6.868340e-01 -5.220174e+00 -1.099100e+00  # Ow     SPCE
    229      77    2  0.424  9.667010e-01 -6.179041e+00 -1.051694e+00  # Hw     SPCE
    230      78    2  0.424  3.206831e+00 -7.765815e+00 -7.974648e+00  # Hw     SPCE
    231      78    3 -0.848  2.609747e+00 -8.422479e+00 -8.435390e+00  # Ow     SPCE
    232      78    2  0.424  2.535937e+00 -8.183596e+00 -9.403629e+00  # Hw     SPCE
    233      79    2  0.424  5.859425e+00 -9.414420e+00  9.029377e+00  # Hw     SPCE
    234      79    3 -0.848  4.963124e+00 -9.146654e+00  9.382853e+00  # Ow     SPCE
    235      79    2  0.424  4.264482e+00 -9.326173e+00  8.690269e+00  # Hw     SPCE
    236      80    2  0.424  4.237857e+00  4.619722e+00  3.396456e+00  # Hw     SPCE
    237      80    3 -0.848  5.112923e+00  4.300968e+00  3.760676e+00  # Ow     SPCE
    238      80    2  0.424  5.632981e+00  5.080890e+00  4.108901e+00  # Hw     SPCE
    239      81    2  0.424  3.309225e+00  1.139037e+00 -9.065680e-01  # Hw     SPCE
    240      81    3 -0.848  3.954501e+00  4.219000e-01 -1.169882e+00  # Ow     SPCE
    241      81    2  0.424  3.468620e+00 -2.981930e-01 -1.665245e+00  # Hw     SPCE
    242      82    2  0.424 -9.368348e+00 -5.880510e+00 -8.267852e+00  # Hw     SPCE
    243      82    3 -0.848 -9.403855e+00 -6.837949e+00 -8.554295e+00  # Ow     SPCE
    244      82    2  0.424 -8.883482e+00 -6.952195e+00 -9.400557e+00  # Hw     SPCE
    245      83    2  0.424 -7.538571e+00  3.815580e+00 -4.100200e+00  # Hw     SPCE
    246      83    3 -0.848 -6.653135e+00  3.475082e+00 -3.783869e+00  # Ow     SPCE
    247      83    2  0.424 -6.728979e+00  2.502276e+00 -3.565019e+00  # Hw     SPCE
    248      84    2  0.424  3.048310e+00  1.185979e+00  3.435781e+00  # Hw     SPCE
    249      84    3 -0.848  2.334017e+00  7.352760e-01  3.971180e+00  # Ow     SPCE
    250      84    2  0.424  1.470519e+00  1.226023e+00  3.854826e+00  # Hw     SPCE
    251      85    2  0.424 -9.405274e+00  1.761536e+00  9.400495e+00  # Hw     SPCE
    252      85    3 -0.848 -9.295930e+00  7.675460e-01  9.405893e+00  # Ow     SPCE
    253      85    2  0.424 -8.322321e+00  5.393250e-01  9.406829e+00  # Hw     SPCE
    254      86    2  0.424 -9.401777e+00  3.121188e+00  3.232838e+00  # Hw     SPCE
    255      86    3 -0.848 -9.277455e+00  3.452235e+00  2.297449e+00  # Ow     SPCE
    256      86    2  0.424 -8.316768e+00  3.359195e+00  2.035869e+00  # Hw     SPCE
    257      87    2  0.424 -6.046313e+00 -9.401073e+00  1.724070e+00  # Hw     SPCE
    258      87    3 -0.848 -5.725630e+00 -8.454150e+00  1.746391e+00  # Ow     SPCE
    259      87    2  0.424 -5.891990e+00 -8.067193e+00  2.653357e+00  # Hw     SPCE
    260      88    2  0.424 -2.384253e+00  6.640133e+00 -7.275947e+00  # Hw     SPCE
    261      88    3 -0.848 -1.789187e+00  5.870476e+00 -7.507301e+00  # Ow     SPCE
    262      88    2  0.424 -2.273144e+00  5.012087e+00 -7.337148e+00  # Hw     SPCE
    263      89    2  0.424 -3.878705e+00 -5.367335e+00  3.148171e+00  # Hw     SPCE
    264      89    3 -0.848 -3.222839e+00 -6.011348e+00  3.541984e+00  # Ow     SPCE
    265      89    2  0.424 -3.704341e+00 -6.656505e+00  4.135219e+00  # Hw     SPCE
    266      90    2  0.424 -8.525102e+00  2.622630e-01  3.450093e+00  # Hw     SPCE
    267      90    3 -0.848 -9.392894e+00  8.968500e-02  2.984095e+00  # Ow     SPCE
    268      90    2  0.424 -9.317375e+00  3.657940e-01  2.025940e+00  # Hw     SPCE
    269      91    2  0.424  7.677000e-01  5.180869e+00  7.627294e+00  # Hw     SPCE
    270      91    3 -0.848  8.356610e-01  6.108747e+00  7.260656e+00  # Ow     SPCE
    271      91    2  0.424 -3.814300e-02  6.369877e+00  6.850440e+00  # Hw     SPCE
    272      92    2  0.424 -3.072124e+00  5.424338e+00  9.163677e+00  # Hw     SPCE
    273      92    3 -0.848 -2.083909e+00  5.569632e+00  9.115516e+00  # Ow     SPCE
    274      92    2  0.424 -1.610216e+00  4.736652e+00  9.401451e+00  # Hw     SPCE
    275      93    2  0.424 -6.918752e+00 -9.400151e+00 -6.599782e+00  # Hw     SPCE
    276      93    3 -0.848 -7.100532e+00 -9.231922e+00 -7.568624e+00  # Ow     SPCE
    277      93    2  0.424 -8.066665e+00 -9.403669e+00 -7.761207e+00  # Hw     SPCE
    278      94    2  0.424 -4.737171e+00 -9.404395e+00 -9.408086e+00  # Hw     SPCE
    279      94    3 -0.848 -4.747019e+00 -8.405346e+00 -9.365604e+00  # Ow     SPCE
    280      94    2  0.424 -3.808881e+00 -8.060944e+00 -9.401437e+00  # Hw     SPCE
    281      95    2  0.424  9.116145e+00  2.176842e+00  7.608551e+00  # Hw     SPCE
    282      95    3 -0.848  9.408752e+00  2.855746e+00  8.281953e+00  # Ow     SPCE
    283      95    2  0.424  8.671376e+00  3.012888e+00  8.938902e+00  # Hw     SPCE
    284      96    2  0.424  6.421877e+00 -2.297450e-01 -3.243887e+00  # Hw     SPCE
    285      96    3 -0.848  6.413737e+00  6.957980e-01 -2.865331e+00  # Ow     SPCE
    286      96    2  0.424  6.698469e+00  1.346385e+00 -3.569364e+00  # Hw     SPCE
    287      97    2  0.424 -6.531931e+00 -5.723303e+00  4.499289e+00  # Hw     SPCE
    288      97    3 -0.848 -6.724025e+00 -5.686097e+00  5.479960e+00  # Ow     SPCE
    289      97    2  0.424 -7.262056e+00 -6.486331e+00  5.744813e+00  # Hw     SPCE
    290      98    2  0.424 -3.400202e+00 -9.403252e+00 -6.307517e+00  # Hw     SPCE
    291      98    3 -0.848 -2.608889e+00 -9.324712e+00 -6.913864e+00  # Ow     SPCE
    292      98    2  0.424 -1.768698e+00 -9.400476e+00 -6.376893e+00  # Hw     SPCE
    293      99    2  0.424 -9.401274e+00 -2.901653e+00 -3.284398e+00  # Hw     SPCE
    294      99    3 -0.848 -8.978295e+00 -3.479189e+00 -3.982640e+00  # Ow     SPCE
    295      99    2  0.424 -9.402087e+00 -3.294612e+00 -4.869393e+00  # Hw     SPCE
    296     100    2  0.424  6.391655e+00 -5.237818e+00 -3.674448e+00  # Hw     SPCE
    297     100    3 -0.848  6.741470e+00 -6.170600e+00 -3.587562e+00  # Ow     SPCE
    298     100    2  0.424  7.286278e+00 -6.245822e+00 -2.752382e+00  # Hw     SPCE
    299     101    2  0.424  9.404262e+00  1.125040e-01 -6.662320e+00  # Hw     SPCE
    300     101    3 -0.848  9.394817e+00 -8.849310e-01 -6.733272e+00  # Ow     SPCE
    301     101    2  0.424  8.476603e+00 -1.224867e+00 -6.529985e+00  # Hw     SPCE
    302     102    2  0.424  2.758171e+00  2.975171e+00  9.403089e+00  # Hw     SPCE
    303     102    3 -0.848  3.658748e+00  2.551284e+00  9.306755e+00  # Ow     SPCE
    304     102    2  0.424  4.361953e+00  3.262134e+00  9.292809e+00  # Hw     SPCE
    305     103    2  0.424  1.800266e+00  7.237509e+00 -3.299924e+00  # Hw     SPCE
    306     103    3 -0.848  2.758606e+00  7.448041e+00 -3.106892e+00  # Ow     SPCE
    307     103    2  0.424  2.818115e+00  8.327691e+00 -2.635008e+00  # Hw     SPCE
    308     104    2  0.424 -2.896828e+00  5.485472e+00  4.161893e+00  # Hw     SPCE
    309     104    3 -0.848 -2.633163e+00  6.448665e+00  4.214244e+00  # Ow     SPCE
    310     104    2  0.424 -1.638463e+00  6.518314e+00  4.289878e+00  # Hw     SPCE
    311     105    2  0.424 -2.508059e+00  3.721427e+00 -1.765725e+00  # Hw     SPCE
    312     105    3 -0.848 -3.015641e+00  3.101628e+00 -2.364232e+00  # Ow     SPCE
    313     105    2  0.424 -3.795696e+00  3.585620e+00 -2.760801e+00  # Hw     SPCE
    314     106    2  0.424  7.820127e+00  2.234589e+00 -7.099160e-01  # Hw     SPCE
    315     106    3 -0.848  8.378007e+00  3.064345e+00 -7.265080e-01  # Ow     SPCE
    316     106    2  0.424  9.346271e+00  2.814773e+00 -7.399030e-01  # Hw     SPCE
    317     107    2  0.424  8.511473e+00  9.402110e+00 -4.139130e-01  # Hw     SPCE
    318     107    3 -0.848  8.066691e+00  9.293258e+00  4.750870e-01  # Ow     SPCE
    319     107    2  0.424  8.746586e+00  9.389850e+00  1.202007e+00  # Hw     SPCE
    320     108    2  0.424 -7.479893e+00 -7.780920e-01 -4.177452e+00  # Hw     SPCE
    321     108    3 -0.848 -6.899799e+00 -1.340262e+00 -4.766906e+00  # Ow     SPCE
    322     108    2  0.424 -7.274303e+00 -1.347413e+00 -5.694103e+00  # Hw     SPCE
    323     109    2  0.424  5.361639e+00  6.766612e+00  6.575005e+00  # Hw     SPCE
    324     109    3 -0.848  4.362680e+00  6.722666e+00  6.562802e+00  # Ow     SPCE
    325     109    2  0.424  4.070929e+00  5.766267e+00  6.576308e+00  # Hw     SPCE
    326     110    2  0.424 -9.807220e-01  9.238690e-01  6.001622e+00  # Hw     SPCE
    327     110    3 -0.848 -6.526620e-01  9.847700e-02  6.461084e+00  # Ow     SPCE
    328     110    2  0.424 -3.877620e-01 -5.809540e-01  5.776833e+00  # Hw     SPCE
    329     111    2  0.424 -9.391295e+00  7.280829e+00 -4.409383e+00  # Hw     SPCE
    330     111    3 -0.848 -9.400933e+00  8.249033e+00 -4.159408e+00  # Ow     SPCE
    331     111    2  0.424 -9.217160e+00  8.804502e+00 -4.970384e+00  # Hw     SPCE
    332     112    2  0.424 -7.852070e-01  8.844551e+00 -6.020010e+00  # Hw     SPCE
    333     112    3 -0.848 -1.588622e+00  9.400795e+00 -6.232416e+00  # Ow     SPCE
    334     112    2  0.424 -2.341131e+00  9.144838e+00 -5.625609e+00  # Hw     SPCE
    335     113    2  0.424 -9.407150e+00 -8.122221e+00  4.432726e+00  # Hw     SPCE
    336     113    3 -0.848 -9.311595e+00 -9.044275e+00  4.807808e+00  # Ow     SPCE
    337     113    2  0.424 -8.407177e+00 -9.404826e+00  4.579706e+00  # Hw     SPCE
    338     114    2  0.424  9.422326e+00  8.598030e+00  4.986878e+00  # Hw     SPCE
    339     114    3 -0.848  9.374849e+00  8.331212e+00  4.024302e+00  # Ow     SPCE
    340     114    2  0.424  9.199764e+00  7.348828e+00  3.958974e+00  # Hw     SPCE
    341     115    2  0.424 -7.202065e+00 -8.559387e+00 -1.270134e+00  # Hw     SPCE
    342     115    3 -0.848 -7.699505e+00 -9.402434e+00 -1.065623e+00  # Ow     SPCE
    343     115    2  0.424 -8.584230e+00 -9.388793e+00 -1.531537e+00  # Hw     SPCE
    344     116    2  0.424 -2.519918e+00  9.401623e+00  3.698382e+00  # Hw     SPCE
    345     116    3 -0.848 -1.775679e+00  9.359359e+00  3.031807e+00  # Ow     SPCE
    346     116    2  0.424 -2.157288e+00  9.289491e+00  2.110128e+00  # Hw     SPCE
    347     117    2  0.424  2.358871e+00  6.428554e+00 -6.478756e+00  # Hw     SPCE
    348     117    3 -0.848  1.383241e+00  6.643158e+00 -6.433028e+00  # Ow     SPCE