LAMMPS data file via write_data, version 12 Apr 2014, timestep = 200000

649 atoms
3 atom types
432 bonds
1 bond types
216 angles
1 angle types

-9.3639067406208927e+00 9.3639067406208927e+00 xlo xhi
-9.3639067406208927e+00 9.3639067406208927e+00 ylo yhi
-9.3639067406208927e+00 9.3639067406208927e+00 zlo zhi

Masses

1 20.18
2 1.008
3 15.999

Bond Coeffs # harmonic

1 517.6 1

Angle Coeffs # harmonic

1 37.95 109.47

Atoms # full

91 31 2 4.2399999999999999e-01 -9.0329345378418324e-01 -2.2692248226000586e+00 -3.8645429834293665e-01 -1 0 0
77 27 2 4.2399999999999999e-01 -5.0620611530427873e+00 -5.1540020243091078e-01 -1.3202200127906067e+00 0 0 -1
301 101 2 4.2399999999999999e-01 -6.4390389331731086e+00 -8.1229807936224301e+00 -8.7261494088328000e+00 1 0 0
72 25 3 -8.4799999999999998e-01 -6.1622736998021495e+00 -9.0956004008275215e-01 -4.8822666046552250e+00 0 0 0
554 186 2 4.2399999999999999e-01 -8.5576255827863665e+00 -4.6090952238498923e+00 -9.0987202910412535e+00 0 0 0
230 78 2 4.2399999999999999e-01 -3.3739695260939095e+00 -5.8400426933050209e+00 -6.0467295214704544e+00 1 0 0
205 69 2 4.2399999999999999e-01 -7.3545823326389854e+00 -5.1597107108828837e+00 -5.8205257724479988e+00 0 0 1
141 48 3 -8.4799999999999998e-01 -2.1162913673882686e+00 -4.1283672123679667e+00 -8.8116327636070935e+00 0 0 1
204 69 3 -8.4799999999999998e-01 -7.1280779115906725e+00 -5.4164616005834247e+00 -6.7601354822228998e+00 0 0 1
87 30 3 -8.4799999999999998e-01 -4.6082136422219584e+00 -3.2819807839253823e+00 -2.7310782829194480e+00 1 1 1
324 109 3 -8.4799999999999998e-01 -5.5687491704042102e-01 -5.1561806387616205e+00 -5.4595371487016475e+00 1 0 1
71 25 2 4.2399999999999999e-01 -6.8582085444001439e+00 -1.0907810515302767e+00 -4.1873386823451071e+00 0 0 0
50 18 2 4.2399999999999999e-01 -5.7015830709039568e+00 -2.9679229816554198e+00 -8.2348461053538617e+00 0 1 1
622 208 2 4.2399999999999999e-01 -8.8051036184293121e+00 -5.1819111834948535e+00 -4.5846347149634150e+00 1 0 1
171 58 3 -8.4799999999999998e-01 -9.2144463804444428e+00 -3.5105757444543615e+00 -7.8272288972786361e+00 0 -1 0
86 30 2 4.2399999999999999e-01 -4.5395535886996372e+00 -3.0065460154751555e+00 -1.7721665898643488e+00 1 1 1
51 18 3 -8.4799999999999998e-01 -6.5782094239557338e+00 -3.0571634567334911e+00 -8.7077666775748099e+00 0 1 1
306 103 3 -8.4799999999999998e-01 -1.2154417557218551e+00 -6.7200747275540254e+00 -9.1158471003606394e+00 0 1 0
22 8 2 4.2399999999999999e-01 -5.6325605009513495e+00 -5.0143739451023812e+00 -2.3785993149117264e+00 0 0 0
44 16 2 4.2399999999999999e-01 -1.3111551409432227e+00 -6.3763234115872827e+00 -6.3353664490498538e+00 1 0 0
481 161 2 4.2399999999999999e-01 -5.9811246980069246e+00 -7.0512907750773248e+00 -1.3336474737708830e+00 0 0 0
536 180 2 4.2399999999999999e-01 -4.3898736686596500e+00 -3.5866157916443804e+00 -6.2700173397184820e+00 0 1 0
52 18 2 4.2399999999999999e-01 -7.3239239654258288e+00 -2.9627161242743671e+00 -8.0481603380581941e+00 0 1 1
383 129 2 4.2399999999999999e-01 -5.0230980387872037e-01 -5.6584524450499645e+00 -1.9216257151669280e+00 0 -1 0
620 208 2 4.2399999999999999e-01 -8.0147270731592126e+00 -4.6144215952877650e+00 -3.2730980668637661e+00 1 0 1
279 94 3 -8.4799999999999998e-01 -3.2395872084697013e+00 -8.7009891878930894e+00 -4.9514120476078141e+00 0 0 0
447 150 3 -8.4799999999999998e-01 -6.8472912782879032e+00 -7.5379400627382633e+00 -4.0963705033140396e+00 1 1 0
504 169 3 -8.4799999999999998e-01 -3.4985598229532044e-01 -8.9670737791402857e+00 -4.1530636402787913e-01 0 1 -1
3 2 3 -8.4799999999999998e-01 -3.5470282640308035e+00 -5.6833940354376775e+00 -3.0632463747712206e+00 0 0 0
20 8 2 4.2399999999999999e-01 -7.0817612094070288e+00 -4.7026098443824589e+00 -1.6934064631194472e+00 0 0 0
46 16 2 4.2399999999999999e-01 -2.0723043483629509e+00 -7.2171080992966008e+00 -7.5103561262934546e+00 1 0 0
88 30 2 4.2399999999999999e-01 -3.9829837323261428e+00 -4.0428739898933985e+00 -2.9049158474154400e+00 1 1 1
73 25 2 4.2399999999999999e-01 -5.6237119765948425e+00 -1.7375829048758007e+00 -5.0385341448152179e+00 0 0 0
292 98 2 4.2399999999999999e-01 -8.9059526324565041e-01 -1.5259977643484373e+00 -5.3161682316548191e+00 0 -1 0
129 44 3 -8.4799999999999998e-01 -3.5250508132053326e-01 -2.2204583133332481e+00 -8.3657939080904082e+00 0 0 1
232 78 2 4.2399999999999999e-01 -4.9926302297162977e+00 -5.6241810496735551e+00 -6.0322641032093305e+00 1 0 0
220 74 2 4.2399999999999999e-01 -5.0969367906590666e+00 -5.6010493492886884e+00 -8.3972912354180806e-02 0 0 0
240 81 3 -8.4799999999999998e-01 -3.1627946385311692e+00 -1.4392512097682122e+00 -4.0744447890575080e+00 1 0 1
520 174 2 4.2399999999999999e-01 -6.1221241342158743e+00 -8.4966874623180164e+00 -5.3197668512428411e+00 0 0 0
503 169 2 4.2399999999999999e-01 -1.9646712827702295e-01 -7.9819377588884750e+00 -4.9321718399302306e-01 0 1 -1
45 16 3 -8.4799999999999998e-01 -2.0122087887344247e+00 -7.0641208857146616e+00 -6.5239111158253102e+00 1 0 0
384 129 3 -8.4799999999999998e-01 -8.5895455727635728e-01 -5.4392684680659427e+00 -2.8298409086254823e+00 0 -1 0
60 21 3 -8.4799999999999998e-01 -3.5571167704943898e+00 -8.2076251244422558e+00 -2.3867978071116980e+00 0 -1 0
231 78 3 -8.4799999999999998e-01 -4.1216295502870919e+00 -5.2945758199067798e+00 -5.6678340378755774e+00 1 0 0
537 180 3 -8.4799999999999998e-01 -4.3014420643837825e+00 -2.8600585376156547e+00 -6.9514759813137452e+00 0 1 0
538 180 2 4.2399999999999999e-01 -3.5239571067815385e+00 -2.2762876697902845e+00 -6.7173397332271119e+00 0 1 0
140 48 2 4.2399999999999999e-01 -1.9699475046185553e+00 -5.1174480032494616e+00 -8.7917923532016609e+00 0 0 1
480 161 3 -8.4799999999999998e-01 -5.9912458468945218e+00 -8.0313600913674890e+00 -1.1350221787851105e+00 0 0 0
265 89 2 4.2399999999999999e-01 -8.8790636591489811e+00 -2.8961224326460187e+00 -1.1981481616687102e+00 1 0 0
280 94 2 4.2399999999999999e-01 -4.1182976242316158e+00 -8.9990245350227429e+00 -5.3244182596000673e+00 0 0 0
349 117 2 4.2399999999999999e-01 -1.2779005758926409e+00 -9.1482350526781939e+00 -4.6977603163022374e+00 0 0 0
278 94 2 4.2399999999999999e-01 -2.8350094787500080e+00 -8.0163952348952261e+00 -5.5578267063250610e+00 0 0 0
21 8 3 -8.4799999999999998e-01 -6.2520264965874457e+00 -5.2574735256100755e+00 -1.6321037904699400e+00 0 0 0
479 161 2 4.2399999999999999e-01 -5.2095070041981950e+00 -8.4695080220881795e+00 -1.5788703227100855e+00 0 0 0
299 101 2 4.2399999999999999e-01 -7.1128748979347769e+00 -7.0242472062252510e+00 -7.7233542608502432e+00 1 0 0
203 69 2 4.2399999999999999e-01 -7.5197304764831214e+00 -4.7476210162542909e+00 -7.3920781190413276e+00 0 0 1
4 2 2 4.2399999999999999e-01 -3.7517832766617198e+00 -5.4947951555847503e+00 -4.0237653236356623e+00 0 0 0
239 81 2 4.2399999999999999e-01 -2.4606710070958568e+00 -1.8723141621604187e+00 -4.6397508549062652e+00 1 0 1
446 150 2 4.2399999999999999e-01 -7.2843994068613718e+00 -7.8609759954290652e+00 -3.2569211358988879e+00 1 1 0
518 174 2 4.2399999999999999e-01 -6.0410894162539410e+00 -9.1176511750829050e+00 -6.8279795899233218e+00 0 0 0
2 2 2 4.2399999999999999e-01 -3.6406595653751292e+00 -6.6636295766486127e+00 -2.8887119407279371e+00 0 0 0
61 21 2 4.2399999999999999e-01 -2.9229243253053250e+00 -8.6175072310945975e+00 -1.7311398259537949e+00 0 -1 0
385 129 2 4.2399999999999999e-01 -1.8499419200846656e+00 -5.5731787440449505e+00 -2.8400404332818798e+00 0 -1 0
244 82 2 4.2399999999999999e-01 -7.1129375480910504e+00 -3.1184744900832584e-01 -6.2762149607444844e+00 0 0 0
325 109 2 4.2399999999999999e-01 -5.9108296958856599e-01 -5.2574591800120709e+00 -4.4652217860762153e+00 1 0 1
300 101 3 -8.4799999999999998e-01 -7.0757219838468899e+00 -7.9937295452293835e+00 -7.9658734774413977e+00 1 0 0
291 98 3 -8.4799999999999998e-01 -1.3844937183248467e+00 -2.2356630308810050e+00 -5.8186917884406153e+00 0 -1 0
448 150 2 4.2399999999999999e-01 -7.0622396593460586e+00 -6.5709087141528002e+00 -4.2332608462018193e+00 1 1 0
59 21 2 4.2399999999999999e-01 -3.3405248095047826e+00 -8.5321574387334049e+00 -3.3075895675171347e+00 0 -1 0
621 208 3 -8.4799999999999998e-01 -7.9049941734635771e+00 -4.9897908366836630e+00 -4.1935041850668773e+00 1 0 1
323 109 2 4.2399999999999999e-01 -7.8968074615044159e-01 -4.2156181304766962e+00 -5.7069925520410063e+00 1 0 1
241 81 2 4.2399999999999999e-01 -3.5623310413431337e+00 -2.1195217052875268e+00 -3.4598765889502907e+00 1 0 1
264 89 3 -8.4799999999999998e-01 -8.7118881049041867e+00 -3.7455085800010330e+00 -1.6988342454968421e+00 1 0 0
387 130 3 -8.4799999999999998e-01 -8.0304287723596506e+00 -1.8939185582184948e-01 -3.0603947782669652e+00 1 -1 0
298 100 2 4.2399999999999999e-01 -8.6706850841384391e+00 -8.3664306416535474e+00 -5.8003188414554714e+00 1 0 0
290 98 2 4.2399999999999999e-01 -1.0053113491250922e+00 -2.3165164713242339e+00 -6.7405237158002267e+00 0 -1 0
152 52 2 4.2399999999999999e-01 -6.1934587304214048e+00 -5.7781586569497616e+00 -9.3540215921831340e+00 1 0 0
297 100 3 -8.4799999999999998e-01 -8.9051048952322631e+00 -9.3108770240346068e+00 -5.5697562935256162e+00 1 0 0
130 44 2 4.2399999999999999e-01 -7.8645298253836593e-01 -3.0534108307156629e+00 -8.7092641501298562e+00 0 0 1
519 174 3 -8.4799999999999998e-01 -5.6337936300053491e+00 -9.1350912195307838e+00 -5.9148001720203638e+00 0 0 0
89 31 2 4.2399999999999999e-01 -1.9673585850781636e+00 -1.0409561863786152e+00 -5.4767025920909695e-01 -1 0 0
78 27 3 -8.4799999999999998e-01 -4.9426811941850248e+00 -2.9709873288088851e-01 -3.5162133851223309e-01 0 0 -1
388 130 2 4.2399999999999999e-01 -7.9354104761700102e+00 -1.9699767413094271e-01 -2.0649027290739852e+00 1 -1 0
142 48 2 4.2399999999999999e-01 -3.0940403815990729e+00 -3.9343974070286212e+00 -8.7311765634481535e+00 0 0 1
137 47 2 4.2399999999999999e-01 -7.0432104157942881e+00 -1.7237639798458080e+00 8.7224248213059585e+00 0 -1 -1
345 116 3 -8.4799999999999998e-01 -8.3068300571650262e+00 -9.2816771103973714e+00 6.7321485048380882e+00 0 1 -1
540 181 3 -8.4799999999999998e-01 -1.6182756088694186e+00 -5.9900346300556091e+00 3.4727935645275352e+00 0 1 0
178 60 2 4.2399999999999999e-01 -1.5070254449266507e+00 -9.0473934161370124e+00 3.2408129596383262e+00 1 1 -1
516 173 3 -8.4799999999999998e-01 -9.2334924596716554e+00 -5.1012645555513103e-01 6.6558438382904246e+00 0 0 0
417 140 3 -8.4799999999999998e-01 -3.4570272115806109e+00 -1.6084094633502559e+00 2.2283067209765441e+00 0 -1 0
623 209 2 4.2399999999999999e-01 -4.6380134503539843e+00 -2.1907270643047729e+00 5.4797442991156249e+00 2 0 0
534 179 3 -8.4799999999999998e-01 -5.4085970661932130e+00 -8.0511870388416291e+00 3.8836840636894436e+00 0 1 0
625 209 2 4.2399999999999999e-01 -4.8516537747080495e+00 -5.7180326113635793e-01 5.4620751879643468e+00 2 0 0
218 74 2 4.2399999999999999e-01 -5.5311302299186496e+00 -5.6921552523587087e+00 1.4876646224463634e+00 0 0 0
437 147 2 4.2399999999999999e-01 -3.8934703203450169e+00 -2.4872663034590881e+00 9.0017285662886160e-01 1 0 -1
441 148 3 -8.4799999999999998e-01 -4.6605415276987099e+00 -3.4964896745026826e+00 7.8076156299791126e+00 -1 1 0
177 60 3 -8.4799999999999998e-01 -2.4848204790688486e+00 -9.2226477321135771e+00 3.1255104832080836e+00 1 1 -1
139 47 2 4.2399999999999999e-01 -7.5806946250179683e+00 -7.1734448008023399e-01 7.5540504422492187e+00 0 -1 -1
17 7 2 4.2399999999999999e-01 -4.3950614576844416e+00 -6.9051618283142755e+00 6.6857760322417601e+00 0 1 -1
176 60 2 4.2399999999999999e-01 -3.0084706503226117e+00 -8.4997824183355117e+00 3.5764512123893084e+00 1 1 -1
438 147 3 -8.4799999999999998e-01 -4.2858161414417095e+00 -3.0108589644422423e+00 1.4386200448478093e-01 1 0 -1
624 209 3 -8.4799999999999998e-01 -4.9461768871768514e+00 -1.4137308798011832e+00 4.9307421206158288e+00 2 0 0
419 141 2 4.2399999999999999e-01 -1.6512769594976104e+00 -1.6118733472133089e+00 5.8545930273845066e+00 0 -1 -1
440 148 2 4.2399999999999999e-01 -5.3587674136076853e+00 -2.8279882530150768e+00 8.0638916787229906e+00 -1 1 0
338 114 2 4.2399999999999999e-01 -5.6219866411103130e+00 -9.2732343591887485e+00 4.8708272224067972e+00 1 1 -1
499 167 2 4.2399999999999999e-01 -8.7923728655830455e+00 -5.1360083815808979e+00 2.9417473764832600e+00 0 0 0
633 212 3 -8.4799999999999998e-01 -2.1210918558720344e+00 -4.8982931747390612e+00 9.5000625017491203e-01 -1 0 0
602 202 2 4.2399999999999999e-01 -7.4759895065712136e+00 -3.5253824461957874e+00 5.6047812156572210e+00 1 0 0
75 26 3 -8.4799999999999998e-01 -2.5135582827650778e+00 -1.1193058095151365e+00 7.3756379898930522e+00 0 1 -1
346 116 2 4.2399999999999999e-01 -8.8780868802818826e+00 -8.7868438371257955e+00 7.3870502184312929e+00 0 1 -1
603 202 3 -8.4799999999999998e-01 -7.2650951193183344e+00 -4.3738891947551561e+00 6.0902203358761557e+00 1 0 0
466 156 2 4.2399999999999999e-01 -6.9394955390551516e-01 -3.1053339272569964e+00 4.2509251699632014e+00 1 1 1
334 112 2 4.2399999999999999e-01 -9.0635101610435047e+00 -6.9798408903384921e+00 8.4937009315946153e+00 0 1 0
421 141 2 4.2399999999999999e-01 -1.6659224748217536e+00 -1.0801070301593896e+00 4.3106113784263584e+00 0 -1 -1
131 45 2 4.2399999999999999e-01 -7.7865513901169914e+00 -7.9343426317601828e+00 5.7499693802315637e+00 0 0 0
496 166 2 4.2399999999999999e-01 -7.1814404970320380e+00 -6.3337186518626831e+00 3.6670848510675693e+00 1 1 0
167 57 2 4.2399999999999999e-01 -5.8031790165681230e-01 -5.5908919547357581e+00 1.1676044916625727e-01 0 0 -1
464 156 2 4.2399999999999999e-01 -4.0872813871910019e-01 -4.6665218386391540e+00 3.8659461046178158e+00 1 1 1
632 212 2 4.2399999999999999e-01 -3.0478395462742061e+00 -5.2584410356518028e+00 8.4266188064320957e-01 -1 0 0
556 186 2 4.2399999999999999e-01 -8.5117757810496180e+00 -4.8981728583534414e+00 8.0224816920875401e+00 0 0 -1
494 166 2 4.2399999999999999e-01 -7.2213779770710120e+00 -6.4464913341911583e+00 2.0384179640358475e+00 1 1 0
10 4 2 4.2399999999999999e-01 -2.5949438847048301e+00 -3.3991126238705931e+00 4.8655960069277988e+00 -1 0 0
548 184 2 4.2399999999999999e-01 -6.7316140918362475e+00 -1.4627244178145089e+00 4.9512453698022387e+00 0 0 -1
533 179 2 4.2399999999999999e-01 -5.6693652188254475e+00 -7.9643758638904538e+00 2.9221461192017273e+00 0 1 0
541 181 2 4.2399999999999999e-01 -1.0090227866353132e+00 -6.7783918348737533e+00 3.5587927830058739e+00 0 1 0
260 88 2 4.2399999999999999e-01 -7.5416718449142488e+00 -3.9494141019031517e+00 1.8330297074777775e+00 1 1 -1
105 36 3 -8.4799999999999998e-01 -1.3270299723918555e-01 -8.2429512171295851e+00 3.8408606595859265e+00 0 0 0
305 103 2 4.2399999999999999e-01 -1.7669863323492851e+00 -7.1904824222155881e+00 8.9230489969493920e+00 0 1 -1
583 195 2 4.2399999999999999e-01 -8.4046869515463065e+00 -1.6977791741500941e+00 8.4348789458090323e-01 1 0 0
138 47 3 -8.4799999999999998e-01 -6.7683399383790483e+00 -1.1304299541333798e+00 7.9657926355884587e+00 0 -1 -1
132 45 3 -8.4799999999999998e-01 -7.6573732993662347e+00 -7.1610249794591159e+00 5.1291757226496273e+00 0 0 0
432 145 3 -8.4799999999999998e-01 -9.2506188338996420e+00 -8.9955085222135498e+00 3.8802244717503616e+00 0 0 -1
418 140 2 4.2399999999999999e-01 -4.0269372857524814e+00 -1.5456756161383920e+00 3.0476710658351678e+00 0 -1 0
549 184 3 -8.4799999999999998e-01 -7.6509856964370702e+00 -1.8508920933804145e+00 5.0158393709804532e+00 0 0 -1
8 4 2 4.2399999999999999e-01 -2.5967241288523626e+00 -4.9870527065811521e+00 4.4843982091903651e+00 -1 0 0
535 179 2 4.2399999999999999e-01 -5.3912634716638870e+00 -7.1455205222539835e+00 4.3074274578180933e+00 0 1 0
604 202 2 4.2399999999999999e-01 -6.2772702210236435e+00 -4.4406506801268408e+00 6.2310594577618392e+00 1 0 0
287 97 2 4.2399999999999999e-01 -6.6536037560245074e+00 -9.3234728245607226e+00 1.4642636353157954e+00 0 0 1
219 74 3 -8.4799999999999998e-01 -4.7861195263537368e+00 -5.4723572363243953e+00 8.5779274520917959e-01 0 0 0
98 34 2 4.2399999999999999e-01 -3.9923514128691533e+00 -6.8591843728058484e+00 8.4711881920901799e+00 1 0 0
433 145 2 4.2399999999999999e-01 -8.4500222138327707e+00 -8.4491950730192507e+00 4.1265546832963587e+00 0 0 -1
99 34 3 -8.4799999999999998e-01 -3.4019707702841169e+00 -7.6346917213917536e+00 8.2472931241449157e+00 1 0 0
133 45 2 4.2399999999999999e-01 -7.2422804684956548e+00 -6.3995624525064549e+00 5.6271362411928951e+00 0 0 0
495 166 3 -8.4799999999999998e-01 -7.1225313634283616e+00 -5.8196358350626003e+00 2.8113166177767344e+00 1 1 0
420 141 3 -8.4799999999999998e-01 -1.5362668101460333e+00 -1.8791530561132888e+00 4.8978138976832373e+00 0 -1 -1
261 88 3 -8.4799999999999998e-01 -7.4303591903880095e+00 -2.9575617377975334e+00 1.7703465262136575e+00 1 1 -1
439 147 2 4.2399999999999999e-01 -4.5201511706814621e+00 -3.9299047207188949e+00 4.6093087666699972e-01 1 0 -1
555 186 3 -8.4799999999999998e-01 -8.3799397461334433e+00 -5.3003140624163949e+00 8.9285681369901777e+00 0 0 -1
18 7 3 -8.4799999999999998e-01 -4.9650921797860157e+00 -6.1919387201341518e+00 6.2777701862686257e+00 0 1 -1
289 97 2 4.2399999999999999e-01 -6.0866479170338410e+00 -8.1499305835240676e+00 4.8027777615679312e-01 0 0 1
634 212 2 4.2399999999999999e-01 -2.1020586364261566e+00 -3.9383387812584161e+00 6.7033528566284595e-01 -1 0 0
416 140 2 4.2399999999999999e-01 -2.6061009261547721e+00 -1.1038480119489282e+00 2.3747068695873672e+00 0 -1 0
274 92 2 4.2399999999999999e-01 -9.0375015044078815e+00 -1.7846729175518412e+00 3.8298654067326847e+00 1 0 1
262 88 2 4.2399999999999999e-01 -7.2090602915629791e+00 -2.5892462624942443e+00 2.6733754102414338e+00 1 1 -1
288 97 3 -8.4799999999999998e-01 -6.4629879851639487e+00 -8.3448812142441522e+00 1.3860665025231178e+00 0 0 1
550 184 2 4.2399999999999999e-01 -8.1745085440078142e+00 -1.3544566743068991e+00 5.7083466161752607e+00 0 0 -1
19 7 2 4.2399999999999999e-01 -4.4023362433459177e+00 -5.3902982107782726e+00 6.0758547659082929e+00 0 1 -1
76 26 2 4.2399999999999999e-01 -3.2458107137721210e+00 -4.4749376617536818e-01 7.2635394184239512e+00 0 1 -1
9 4 3 -8.4799999999999998e-01 -3.0727110745720818e+00 -4.2685616086692182e+00 4.9916444605454160e+00 -1 0 0
539 181 2 4.2399999999999999e-01 -1.7173094812770868e+00 -5.7490607610400435e+00 2.5072804780199629e+00 0 1 0
442 148 2 4.2399999999999999e-01 -3.7557896702088538e+00 -3.0756806134957060e+00 7.8742093021888575e+00 -1 1 0
90 31 3 -8.4799999999999998e-01 -1.4671138045637502e+00 -1.6072198833600604e+00 1.0745694089887969e-01 -1 0 0
100 34 2 4.2399999999999999e-01 -3.9589391228060098e+00 -8.4589170351938012e+00 8.1446807534083465e+00 1 0 0
154 52 2 4.2399999999999999e-01 -4.8909350978777741e+00 -4.9159218304264396e+00 8.8975062317026232e+00 1 0 -1
74 26 2 4.2399999999999999e-01 -1.7535302348111399e+00 -7.0370240333283363e-01 7.8753599360775670e+00 0 1 -1
153 52 3 -8.4799999999999998e-01 -5.1943217248271818e+00 -5.7630072582925598e+00 9.3339616835616166e+00 1 0 -1
163 55 2 4.2399999999999999e-01 -1.6419714758297310e-01 -1.5616477877654988e+00 1.2055535026791144e+00 -1 1 1
582 195 3 -8.4799999999999998e-01 -9.2700503325031480e+00 -1.2597343412048865e+00 5.9986170847330023e-01 1 0 0
307 103 2 4.2399999999999999e-01 -2.8943800361852112e-01 -6.5822632581352618e+00 9.2603761046240702e+00 0 1 -1
465 156 3 -8.4799999999999998e-01 -7.6330742247815664e-02 -3.7281665421865160e+00 3.7705950443432243e+00 1 1 1
586 196 2 4.2399999999999999e-01 -5.6289316946625707e+00 -5.1093633298632923e-02 7.3531958722077615e+00 1 1 0
505 169 2 4.2399999999999999e-01 -1.1359476570226903e+00 -9.1360209095327853e+00 1.7934288362855355e-01 0 1 -1
79 27 2 4.2399999999999999e-01 -5.0667627954081267e+00 -1.1255891212767608e+00 1.9454563097836974e-01 0 0 -1
614 206 2 4.2399999999999999e-01 -2.4653267479856567e+00 5.5310496941084590e+00 -4.2040111927193999e+00 -1 -1 0
364 122 2 4.2399999999999999e-01 -5.0796443361795847e+00 6.1563323139941293e+00 -8.2873824245596168e+00 0 -1 0
403 135 2 4.2399999999999999e-01 -3.0564078581609406e+00 1.6820932189101967e-01 -2.9472217454307010e+00 1 0 0
459 154 3 -8.4799999999999998e-01 -6.6532134062235464e+00 4.9072153790603323e+00 -6.4663236153191868e+00 0 -1 1
150 51 3 -8.4799999999999998e-01 -1.5344316045945439e+00 3.5202278252864563e+00 -1.0936343152508208e+00 0 0 0
523 175 2 4.2399999999999999e-01 -7.2479661658997392e+00 2.4271248171737891e+00 -2.1343035751329245e+00 1 -1 0
359 121 2 4.2399999999999999e-01 -5.0753419524946004e+00 4.3851684839188732e+00 -8.2334974206860068e-01 0 -1 0
326 110 2 4.2399999999999999e-01 -3.9633595816093603e-01 5.4243614268998961e+00 -4.0832428307826500e+00 -1 0 0
402 135 3 -8.4799999999999998e-01 -2.6858410789877416e+00 9.9969401750047915e-01 -2.5332118218755131e+00 1 0 0
521 175 2 4.2399999999999999e-01 -6.3819925036732537e+00 2.5960167568984218e+00 -3.5085064036558036e+00 1 -1 0
296 100 2 4.2399999999999999e-01 -8.3678864889237907e+00 8.7922701175056428e+00 -6.1365711174833155e+00 1 -1 0
331 111 2 4.2399999999999999e-01 -4.5252075516765915e+00 8.0245809571107483e+00 -2.2213371022604891e+00 0 0 0
35 13 2 4.2399999999999999e-01 -4.0514859776013603e+00 5.0579288856709450e+00 -5.6158165051364444e+00 -1 -1 -1
487 163 2 4.2399999999999999e-01 -3.9579001959203044e+00 8.8626333675202584e+00 -2.2633542957768604e-01 0 0 -1
460 154 2 4.2399999999999999e-01 -5.6629634218271807e+00 5.0084234521454825e+00 -6.5625142746846983e+00 0 -1 1
37 13 2 4.2399999999999999e-01 -3.1827511894693066e+00 5.1021439744291008e+00 -6.9979210764013455e+00 -1 -1 -1
15 6 3 -8.4799999999999998e-01 -6.1681232556769592e+00 2.4781962649972726e+00 -7.6851807890663357e+00 1 1 0
151 51 2 4.2399999999999999e-01 -2.0202139348670487e+00 2.7559146719356171e+00 -1.5178178543463323e+00 0 0 0
165 56 3 -8.4799999999999998e-01 -8.5598926502297132e+00 1.1494597311630077e+00 -6.2347891116169585e-01 1 0 1
457 153 2 4.2399999999999999e-01 -7.9441351753527387e+00 9.0523002831258470e+00 -1.3967526648581652e+00 0 0 0
470 158 2 4.2399999999999999e-01 -5.0332643301992430e+00 3.8952524936891209e-01 -5.5894233766747945e+00 1 0 1
600 201 3 -8.4799999999999998e-01 -8.4684073215700728e+00 5.1238348242314693e+00 -8.5710069270360183e+00 1 -1 0
401 135 2 4.2399999999999999e-01 -1.7001829612900989e+00 8.9517784724267635e-01 -2.4003772656008193e+00 1 0 0
16 6 2 4.2399999999999999e-01 -5.5803156540850836e+00 2.1157701641886604e+00 -6.9618411688137050e+00 1 1 0
282 95 3 -8.4799999999999998e-01 -4.5434398577662005e+00 2.8125117470252725e+00 -3.5306950452219290e+00 1 0 1
125 43 2 4.2399999999999999e-01 -9.3951138803223699e-01 4.5673286969755438e+00 -7.3140623054620626e+00 0 -1 0
36 13 3 -8.4799999999999998e-01 -4.1060109334295758e+00 5.0851397202210897e+00 -6.6140031287355878e+00 -1 -1 -1
166 56 2 4.2399999999999999e-01 -9.1205607048462571e+00 4.2108916664155238e-01 -2.2950160622446347e-01 1 0 1
629 211 2 4.2399999999999999e-01 -5.9363571740319543e-01 7.1069590830387011e+00 -5.3568457473533995e+00 0 0 0
110 38 2 4.2399999999999999e-01 -2.2994233065445222e+00 1.0821796488740727e+00 -7.9593231798709434e+00 1 1 1
472 158 2 4.2399999999999999e-01 -4.1740855271416617e+00 1.7105609350562823e+00 -5.1610024486132193e+00 1 0 1
630 211 3 -8.4799999999999998e-01 -1.3430372008982605e+00 6.4455485914031314e+00 -5.3248319969007021e+00 0 0 0
615 206 3 -8.4799999999999998e-01 -3.3909887351105494e+00 5.3923989342904921e+00 -3.8518500355736967e+00 -1 -1 0
102 35 3 -8.4799999999999998e-01 -9.0503680447248094e+00 5.3904248172270286e+00 -1.2389170374707597e+00 1 0 0
281 95 2 4.2399999999999999e-01 -4.2289409148064729e+00 3.7482084772764139e+00 -3.3705282253855966e+00 1 0 1
616 206 2 4.2399999999999999e-01 -3.7887420175225399e+00 6.2755708850377605e+00 -3.6030712883771381e+00 -1 -1 0
63 22 3 -8.4799999999999998e-01 -7.6308114005642453e+00 5.2496805994471885e+00 -3.8690462234119751e+00 1 0 1
631 211 2 4.2399999999999999e-01 -1.8778032552293364e+00 6.5066750063355538e+00 -6.1676719562776654e+00 0 0 0
64 22 2 4.2399999999999999e-01 -7.6551919902176060e+00 4.2747189498865588e+00 -3.6478062109711900e+00 1 0 1
455 153 2 4.2399999999999999e-01 -8.7431816385321479e+00 7.6574805043251555e+00 -1.1088793724155597e+00 0 0 0
103 35 2 4.2399999999999999e-01 -8.2415332632601661e+00 5.7061711819207321e+00 -7.4274991122483591e-01 1 0 0
599 201 2 4.2399999999999999e-01 -7.9005080672144290e+00 5.2153263732093293e+00 -7.7529535143956503e+00 1 -1 0
361 121 2 4.2399999999999999e-01 -4.7614508059032197e+00 5.9845400728290095e+00 -9.2509759345661280e-01 0 -1 0
309 104 3 -8.4799999999999998e-01 -5.7675432368041406e+00 7.2970207340614461e+00 -4.0873581302705118e+00 1 0 1
329 111 2 4.2399999999999999e-01 -5.9585736085710774e+00 7.9458795058991800e+00 -1.4427895366434242e+00 0 0 0
242 82 2 4.2399999999999999e-01 -6.7227159690384966e+00 8.6981246543601642e-01 -7.3337007218682952e+00 0 0 0
328 110 2 4.2399999999999999e-01 -5.3440717488378375e-01 4.3245857900358207e+00 -2.8839519157526938e+00 -1 0 0
360 121 3 -8.4799999999999998e-01 -4.7504200394483940e+00 5.1870300589294800e+00 -3.2181720037001682e-01 0 -1 0
471 158 3 -8.4799999999999998e-01 -4.6337607556971676e+00 1.2455307137220188e+00 -5.9176637483787431e+00 1 0 1
127 43 2 4.2399999999999999e-01 -1.5780921117786271e+00 5.8111399391143568e+00 -8.1578731724092428e+00 0 -1 0
146 50 2 4.2399999999999999e-01 -8.8977860233053292e+00 8.1279074834765748e+00 -7.9613231552757240e+00 0 1 0
112 38 2 4.2399999999999999e-01 -2.9401732570032504e+00 1.0923202847284017e+00 -6.4572570662912909e+00 1 1 1
39 14 3 -8.4799999999999998e-01 -6.2459471638533230e+00 2.8197776514026014e+00 -4.6121280453285607e-01 0 0 1
111 38 3 -8.4799999999999998e-01 -2.1050447680842925e+00 9.4665233619991085e-01 -6.9877578347761702e+00 1 1 1
391 131 2 4.2399999999999999e-01 -4.1427263204193387e-01 6.9780571536760228e-01 -7.0311416090650400e+00 0 0 1
522 175 3 -8.4799999999999998e-01 -7.3016185839194545e+00 2.4866110911721346e+00 -3.1311352809626332e+00 1 -1 0
458 154 2 4.2399999999999999e-01 -6.9553882527225737e+00 5.3649177114673456e+00 -5.6300886821672016e+00 0 -1 1
283 95 2 4.2399999999999999e-01 -3.9186325913791640e+00 2.1702425236825000e+00 -3.0866252564763794e+00 1 0 1
526 176 2 4.2399999999999999e-01 -2.3737009789689960e+00 3.3683674268202868e+00 -8.9097019814262879e+00 1 -1 0
85 29 2 4.2399999999999999e-01 -8.7339037931705104e+00 2.3527255611223552e+00 -4.6442032650784872e+00 0 0 0
363 122 3 -8.4799999999999998e-01 -5.4490290670192909e+00 6.9209363377957143e+00 -8.8156120755106517e+00 0 -1 0
310 104 2 4.2399999999999999e-01 -6.3429064093113805e+00 6.4811917827667731e+00 -4.1462742055448407e+00 1 0 1
126 43 3 -8.4799999999999998e-01 -1.7263975532500337e+00 4.8708171697669869e+00 -7.8514594591996545e+00 0 -1 0
14 6 2 4.2399999999999999e-01 -6.6710837786169748e+00 3.2707312473580856e+00 -7.3402033363610482e+00 1 1 0
308 104 2 4.2399999999999999e-01 -5.7502358823261144e+00 7.7575052436546823e+00 -4.9749083402072332e+00 1 0 1
62 22 2 4.2399999999999999e-01 -8.0260166616725552e+00 5.7728228964009940e+00 -3.1139126925433489e+00 1 0 1
330 111 3 -8.4799999999999998e-01 -4.9652468211277041e+00 7.9417383950027922e+00 -1.3271372693010619e+00 0 0 0
149 51 2 4.2399999999999999e-01 -2.0008043559748128e+00 3.7841788708815773e+00 -2.4928934635702404e-01 0 0 0
147 50 3 -8.4799999999999998e-01 -7.9025681037186004e+00 8.0801835487129221e+00 -8.0470838780666814e+00 0 1 0
456 153 3 -8.4799999999999998e-01 -7.8421694161197930e+00 8.0898838713837460e+00 -1.1448629910720332e+00 0 0 0
348 117 3 -8.4799999999999998e-01 -4.5905117452772259e-01 9.0341702853322392e+00 -4.8769422161842328e+00 0 -1 0
143 49 2 4.2399999999999999e-01 -9.0986061380250653e+00 1.2955039703821392e-01 -7.3273402435606041e+00 1 1 0
386 130 2 4.2399999999999999e-01 -7.6927203572995095e+00 6.8016230626506768e-01 -3.4208379386216627e+00 1 -1 0
362 122 2 4.2399999999999999e-01 -6.4283961261943698e+00 7.0094507832115323e+00 -8.6336863798288750e+00 0 -1 0
95 33 2 4.2399999999999999e-01 -1.3092769944812765e-01 8.0369949516444148e+00 -8.8255186861189721e+00 0 0 1
628 210 2 4.2399999999999999e-01 -3.4231278183792213e-01 1.1665160602453994e-01 -9.0852223214022167e+00 0 0 0
327 110 3 -8.4799999999999998e-01 -3.4558081368645688e-02 4.5677289821690934e+00 -3.7152902575124802e+00 -1 0 0
148 50 2 4.2399999999999999e-01 -7.5564652836088460e+00 8.9490737359379988e+00 -8.4011091537398634e+00 0 1 0
164 56 2 4.2399999999999999e-01 -9.1489663215188433e+00 1.8047181275736488e+00 -1.0964687625066230e+00 1 0 1
96 33 3 -8.4799999999999998e-01 -7.6557989047491937e-01 7.3211765507263866e+00 -9.1169155127648107e+00 0 0 1
243 82 3 -8.4799999999999998e-01 -7.3157314864742000e+00 8.0688298046789342e-02 -7.1733668073470849e+00 0 0 0
40 14 2 4.2399999999999999e-01 -7.1745555513944694e+00 3.0747090911141175e+00 -1.9142171401943386e-01 0 0 1
601 201 2 4.2399999999999999e-01 -8.0495092554029153e+00 5.6287660186351047e+00 -9.3257647001011161e+00 1 -1 0
49 17 2 4.2399999999999999e-01 -2.3068178283845242e-01 3.1830006208899260e+00 -1.2634027525721336e-01 0 1 1
524 176 2 4.2399999999999999e-01 -3.3465491893047092e+00 2.3994195632474753e+00 8.9340455639927061e+00 1 -1 -1
485 163 2 4.2399999999999999e-01 -3.2537372154705615e+00 9.0616847648327337e+00 1.2335966705735135e+00 0 0 -1
627 210 3 -8.4799999999999998e-01 -4.0212809520725479e-01 6.2641981801344571e-01 8.7843083206895134e+00 0 0 -1
339 114 3 -8.4799999999999998e-01 -5.9773637590117961e+00 8.8975459765355627e+00 5.6215016005904825e+00 1 0 -1
193 65 2 4.2399999999999999e-01 -8.0866029534514645e+00 5.0734051948553276e+00 1.7446609340364674e+00 0 0 0
134 46 2 4.2399999999999999e-01 -1.7379265423777985e+00 4.2398489278516269e+00 2.6534619045870595e+00 -1 0 0
135 46 3 -8.4799999999999998e-01 -1.0206305950696670e+00 4.5522515676836157e+00 3.2763434973729595e+00 -1 0 0
342 115 3 -8.4799999999999998e-01 -7.1315750626625061e+00 5.7904003971315881e+00 6.9907657771816289e-01 0 -1 0
648 217 3 -8.4799999999999998e-01 -5.1597624086117584e+00 8.8788758940881944e+00 8.1615132373530788e+00 1 -1 0
647 217 2 4.2399999999999999e-01 -5.3959890111676705e+00 8.5864542958495296e+00 7.2348103507423982e+00 1 -1 0