created by fftool

649 atoms
432 bonds
216 angles

3 atom types
1 bond types
1 angle types

-11.355969 11.355969 xlo xhi
-11.355969 11.355969 ylo yhi
-11.355969 11.355969 zlo zhi

Masses

   1   20.180  # Ne
   2   15.999  # Ow
   3    1.008  # Hw

Bond Coeffs

   1   517.6  0.957  # Ow-Hw

Angle Coeffs

   1   37.95  104.52  # Hw-Ow-Hw

Atoms

      1       1    1  0.000 -9.413165e+00  9.405422e+00  9.416959e+00  # Ne     neon
      2       2    2 -1.048  3.314541e+00  3.533089e+00 -5.135716e+00  # Ow     TIP4P-Ew
      3       2    3  0.524  3.430426e+00  3.644956e+00 -6.079267e+00  # Hw     TIP4P-Ew
      4       2    3  0.524  4.007398e+00  2.924448e+00 -4.879323e+00  # Hw     TIP4P-Ew
      5       3    2 -1.048 -1.629300e+00 -1.216115e+00 -5.486895e+00  # Ow     TIP4P-Ew
      6       3    3  0.524 -2.493989e+00 -1.041732e+00 -5.115228e+00  # Hw     TIP4P-Ew
      7       3    3  0.524 -1.742840e+00 -1.088932e+00 -6.428789e+00  # Hw     TIP4P-Ew
      8       4    2 -1.048 -2.192990e+00  1.977628e+00 -4.057293e+00  # Ow     TIP4P-Ew
      9       4    3  0.524 -1.437159e+00  1.936194e+00 -4.643157e+00  # Hw     TIP4P-Ew
     10       4    3  0.524 -1.826809e+00  2.234142e+00 -3.210923e+00  # Hw     TIP4P-Ew
     11       5    2 -1.048  8.644829e+00 -8.814646e+00  6.889854e+00  # Ow     TIP4P-Ew
     12       5    3  0.524  9.400996e+00 -9.398851e+00  6.945952e+00  # Hw     TIP4P-Ew
     13       5    3  0.524  7.891025e+00 -9.381404e+00  7.053553e+00  # Hw     TIP4P-Ew
     14       6    2 -1.048  1.026423e+00  9.411908e+00 -9.439640e+00  # Ow     TIP4P-Ew
     15       6    3  0.524  1.895306e+00  9.029445e+00 -9.317178e+00  # Hw     TIP4P-Ew
     16       6    3  0.524  6.340640e-01  9.400700e+00 -8.566622e+00  # Hw     TIP4P-Ew
     17       7    2 -1.048 -9.383403e+00  2.481046e+00 -4.660380e-01  # Ow     TIP4P-Ew
     18       7    3  0.524 -9.400322e+00  1.578411e+00 -7.841500e-01  # Hw     TIP4P-Ew
     19       7    3  0.524 -9.399996e+00  2.399779e+00  4.875620e-01  # Hw     TIP4P-Ew
     20       8    2 -1.048  6.612469e+00  4.160452e+00 -4.051586e+00  # Ow     TIP4P-Ew
     21       8    3  0.524  7.110717e+00  4.976246e+00 -4.101178e+00  # Hw     TIP4P-Ew
     22       8    3  0.524  7.278739e+00  3.474251e+00 -4.013577e+00  # Hw     TIP4P-Ew
     23       9    2 -1.048  5.116618e+00 -4.720605e+00 -8.524894e+00  # Ow     TIP4P-Ew
     24       9    3  0.524  4.379227e+00 -4.857046e+00 -7.930025e+00  # Hw     TIP4P-Ew
     25       9    3  0.524  4.746639e+00 -4.846838e+00 -9.398629e+00  # Hw     TIP4P-Ew
     26      10    2 -1.048 -9.366200e-01  4.307718e+00 -9.402052e+00  # Ow     TIP4P-Ew
     27      10    3  0.524 -4.104810e-01  3.537641e+00 -9.186664e+00  # Hw     TIP4P-Ew
     28      10    3  0.524 -1.842318e+00  4.003465e+00 -9.343976e+00  # Hw     TIP4P-Ew
     29      11    2 -1.048  3.509859e+00  8.850008e+00 -6.717617e+00  # Ow     TIP4P-Ew
     30      11    3  0.524  2.773300e+00  9.406236e+00 -6.463997e+00  # Hw     TIP4P-Ew
     31      11    3  0.524  4.054487e+00  9.410311e+00 -7.270495e+00  # Hw     TIP4P-Ew
     32      12    2 -1.048  9.408302e+00 -5.759621e+00  5.062601e+00  # Ow     TIP4P-Ew
     33      12    3  0.524  8.718926e+00 -6.417637e+00  4.973113e+00  # Hw     TIP4P-Ew
     34      12    3  0.524  8.947761e+00 -4.921761e+00  5.016515e+00  # Hw     TIP4P-Ew
     35      13    2 -1.048 -3.550715e+00 -5.071967e+00 -9.399659e+00  # Ow     TIP4P-Ew
     36      13    3  0.524 -3.420026e+00 -4.123730e+00 -9.399936e+00  # Hw     TIP4P-Ew
     37      13    3  0.524 -2.665533e+00 -5.436221e+00 -9.401612e+00  # Hw     TIP4P-Ew
     38      14    2 -1.048 -8.656137e+00 -8.820975e+00  9.397803e+00  # Ow     TIP4P-Ew
     39      14    3  0.524 -9.399818e+00 -9.398989e+00  9.227301e+00  # Hw     TIP4P-Ew
     40      14    3  0.524 -7.893726e+00 -9.399485e+00  9.380860e+00  # Hw     TIP4P-Ew
     41      15    2 -1.048 -5.088161e+00  6.238174e+00 -8.579470e+00  # Ow     TIP4P-Ew
     42      15    3  0.524 -5.592444e+00  6.320571e+00 -9.388877e+00  # Hw     TIP4P-Ew
     43      15    3  0.524 -4.299983e+00  5.759150e+00 -8.835484e+00  # Hw     TIP4P-Ew
     44      16    2 -1.048  6.195466e+00 -4.277059e+00  4.012425e+00  # Ow     TIP4P-Ew
     45      16    3  0.524  6.130953e+00 -5.231879e+00  4.032133e+00  # Hw     TIP4P-Ew
     46      16    3  0.524  5.293996e+00 -3.978022e+00  3.893429e+00  # Hw     TIP4P-Ew
     47      17    2 -1.048  5.022557e+00 -4.250365e+00  6.890492e+00  # Ow     TIP4P-Ew
     48      17    3  0.524  5.246053e+00 -5.181085e+00  6.896968e+00  # Hw     TIP4P-Ew
     49      17    3  0.524  4.065613e+00 -4.233443e+00  6.876275e+00  # Hw     TIP4P-Ew
     50      18    2 -1.048 -6.108601e+00  8.523810e-01 -4.396050e-01  # Ow     TIP4P-Ew
     51      18    3  0.524 -6.780093e+00  1.721120e-01 -3.889690e-01  # Hw     TIP4P-Ew
     52      18    3  0.524 -6.502557e+00  1.610999e+00 -8.875000e-03  # Hw     TIP4P-Ew
     53      19    2 -1.048  4.613742e+00  8.484348e+00  3.964110e-01  # Ow     TIP4P-Ew
     54      19    3  0.524  4.271479e+00  9.376879e+00  3.466520e-01  # Hw     TIP4P-Ew
     55      19    3  0.524  5.562976e+00  8.587195e+00  3.285130e-01  # Hw     TIP4P-Ew
     56      20    2 -1.048  1.256492e+00  9.188927e+00  6.290263e+00  # Ow     TIP4P-Ew
     57      20    3  0.524  1.309638e+00  9.403795e+00  5.359007e+00  # Hw     TIP4P-Ew
     58      20    3  0.524  3.556500e-01  9.401205e+00  6.534505e+00  # Hw     TIP4P-Ew
     59      21    2 -1.048  7.867079e+00 -3.115063e+00  5.871530e-01  # Ow     TIP4P-Ew
     60      21    3  0.524  7.908397e+00 -3.689562e+00 -1.773570e-01  # Hw     TIP4P-Ew
     61      21    3  0.524  7.076394e+00 -3.389872e+00  1.051403e+00  # Hw     TIP4P-Ew
     62      22    2 -1.048  9.264675e+00 -5.961563e+00  1.469566e+00  # Ow     TIP4P-Ew
     63      22    3  0.524  8.415511e+00 -6.323093e+00  1.723433e+00  # Hw     TIP4P-Ew
     64      22    3  0.524  9.400783e+00 -5.226268e+00  2.067099e+00  # Hw     TIP4P-Ew
     65      23    2 -1.048 -3.346790e+00 -9.405521e+00  8.842884e+00  # Ow     TIP4P-Ew
     66      23    3  0.524 -4.121689e+00 -9.365952e+00  9.403417e+00  # Hw     TIP4P-Ew
     67      23    3  0.524 -2.629498e+00 -9.110495e+00  9.403851e+00  # Hw     TIP4P-Ew
     68      24    2 -1.048  2.070167e+00 -9.351537e+00 -6.014985e+00  # Ow     TIP4P-Ew
     69      24    3  0.524  1.642916e+00 -9.399987e+00 -5.159800e+00  # Hw     TIP4P-Ew
     70      24    3  0.524  1.351382e+00 -9.398473e+00 -6.645364e+00  # Hw     TIP4P-Ew
     71      25    2 -1.048 -9.394993e+00 -6.742288e+00  6.670035e+00  # Ow     TIP4P-Ew
     72      25    3  0.524 -8.505549e+00 -6.967077e+00  6.943150e+00  # Hw     TIP4P-Ew
     73      25    3  0.524 -9.343118e+00 -5.820031e+00  6.419072e+00  # Hw     TIP4P-Ew
     74      26    2 -1.048  2.513998e+00 -2.474752e+00 -5.406741e+00  # Ow     TIP4P-Ew
     75      26    3  0.524  2.349173e+00 -3.374987e+00 -5.126312e+00  # Hw     TIP4P-Ew
     76      26    3  0.524  1.654093e+00 -2.054921e+00 -5.383574e+00  # Hw     TIP4P-Ew
     77      27    2 -1.048 -9.400051e+00  1.004242e+00 -6.506995e+00  # Ow     TIP4P-Ew
     78      27    3  0.524 -9.333929e+00  4.003930e-01 -5.767248e+00  # Hw     TIP4P-Ew
     79      27    3  0.524 -9.312601e+00  1.873468e+00 -6.115802e+00  # Hw     TIP4P-Ew
     80      28    2 -1.048 -6.224908e+00  1.541627e+00  8.589675e+00  # Ow     TIP4P-Ew
     81      28    3  0.524 -6.723087e+00  1.434206e+00  9.399928e+00  # Hw     TIP4P-Ew
     82      28    3  0.524 -5.437564e+00  2.017835e+00  8.853392e+00  # Hw     TIP4P-Ew
     83      29    2 -1.048 -1.791041e+00 -8.876329e+00  3.606600e+00  # Ow     TIP4P-Ew
     84      29    3  0.524 -1.040779e+00 -9.400502e+00  3.886925e+00  # Hw     TIP4P-Ew
     85      29    3  0.524 -2.554179e+00 -9.401280e+00  3.848010e+00  # Hw     TIP4P-Ew
     86      30    2 -1.048 -6.137973e+00  4.187825e+00  1.875381e+00  # Ow     TIP4P-Ew
     87      30    3  0.524 -6.104302e+00  4.978176e+00  2.414309e+00  # Hw     TIP4P-Ew
     88      30    3  0.524 -5.573095e+00  4.382960e+00  1.127674e+00  # Hw     TIP4P-Ew
     89      31    2 -1.048  3.583786e+00  6.284810e+00  9.395878e+00  # Ow     TIP4P-Ew
     90      31    3  0.524  4.520131e+00  6.483413e+00  9.402707e+00  # Hw     TIP4P-Ew
     91      31    3  0.524  3.156874e+00  7.141407e+00  9.381071e+00  # Hw     TIP4P-Ew
     92      32    2 -1.048 -3.891433e+00 -4.133591e+00  6.125540e+00  # Ow     TIP4P-Ew
     93      32    3  0.524 -4.245193e+00 -4.763060e+00  6.753914e+00  # Hw     TIP4P-Ew
     94      32    3  0.524 -3.445814e+00 -3.480486e+00  6.665085e+00  # Hw     TIP4P-Ew
     95      33    2 -1.048 -5.764336e+00  6.626247e+00  6.380950e+00  # Ow     TIP4P-Ew
     96      33    3  0.524 -5.940800e+00  5.865663e+00  5.827232e+00  # Hw     TIP4P-Ew
     97      33    3  0.524 -4.901150e+00  6.454132e+00  6.757137e+00  # Hw     TIP4P-Ew
     98      34    2 -1.048  6.909710e-01  3.369385e+00 -4.479850e-01  # Ow     TIP4P-Ew
     99      34    3  0.524  4.834440e-01  2.560378e+00 -9.156100e-01  # Hw     TIP4P-Ew
    100      34    3  0.524  1.430979e+00  3.138848e+00  1.136830e-01  # Hw     TIP4P-Ew
    101      35    2 -1.048  1.992702e+00  1.106667e+00 -3.603132e+00  # Ow     TIP4P-Ew
    102      35    3  0.524  2.683034e+00  4.678500e-01 -3.425404e+00  # Hw     TIP4P-Ew
    103      35    3  0.524  1.187756e+00  6.768040e-01 -3.314150e+00  # Hw     TIP4P-Ew
    104      36    2 -1.048  4.212431e+00  1.362954e+00  6.686087e+00  # Ow     TIP4P-Ew
    105      36    3  0.524  3.746077e+00  1.262800e+00  5.856198e+00  # Hw     TIP4P-Ew
    106      36    3  0.524  3.938772e+00  6.084760e-01  7.207724e+00  # Hw     TIP4P-Ew
    107      37    2 -1.048 -7.586617e+00  9.239449e+00  7.043783e+00  # Ow     TIP4P-Ew
    108      37    3  0.524 -6.960967e+00  9.020462e+00  7.734319e+00  # Hw     TIP4P-Ew
    109      37    3  0.524 -7.044667e+00  9.402613e+00  6.271838e+00  # Hw     TIP4P-Ew
    110      38    2 -1.048 -4.841967e+00 -2.377661e+00  9.372849e+00  # Ow     TIP4P-Ew
    111      38    3  0.524 -5.476660e+00 -1.661462e+00  9.394230e+00  # Hw     TIP4P-Ew
    112      38    3  0.524 -5.376451e+00 -3.171562e+00  9.356140e+00  # Hw     TIP4P-Ew
    113      39    2 -1.048  7.047835e+00 -1.320865e+00  6.314221e+00  # Ow     TIP4P-Ew
    114      39    3  0.524  7.352006e+00 -2.212441e+00  6.483938e+00  # Hw     TIP4P-Ew
    115      39    3  0.524  6.093035e+00 -1.388569e+00  6.316250e+00  # Hw     TIP4P-Ew
    116      40    2 -1.048  6.593175e+00  1.604669e+00  4.643126e+00  # Ow     TIP4P-Ew
    117      40    3  0.524  6.430266e+00  2.535255e+00  4.797079e+00  # Hw     TIP4P-Ew
    118      40    3  0.524  7.003245e+00  1.572596e+00  3.778808e+00  # Hw     TIP4P-Ew
    119      41    2 -1.048 -9.094509e+00 -4.008893e+00  3.708765e+00  # Ow     TIP4P-Ew
    120      41    3  0.524 -9.401449e+00 -4.895449e+00  3.518924e+00  # Hw     TIP4P-Ew
    121      41    3  0.524 -9.399590e+00 -3.485471e+00  2.967694e+00  # Hw     TIP4P-Ew
    122      42    2 -1.048  9.400050e+00  4.332230e-01  4.658080e-01  # Ow     TIP4P-Ew
    123      42    3  0.524  9.357521e+00 -5.116450e-01  6.129370e-01  # Hw     TIP4P-Ew
    124      42    3  0.524  9.146441e+00  8.183690e-01  1.304602e+00  # Hw     TIP4P-Ew
    125      43    2 -1.048  8.483661e+00 -2.245847e+00  3.692777e+00  # Ow     TIP4P-Ew
    126      43    3  0.524  9.400000e+00 -2.142731e+00  3.949531e+00  # Hw     TIP4P-Ew
    127      43    3  0.524  8.232885e+00 -1.388523e+00  3.348775e+00  # Hw     TIP4P-Ew
    128      44    2 -1.048  9.402061e+00  6.968150e+00 -8.291244e+00  # Ow     TIP4P-Ew
    129      44    3  0.524  8.636037e+00  6.686982e+00 -8.791627e+00  # Hw     TIP4P-Ew
    130      44    3  0.524  9.357086e+00  6.462974e+00 -7.479452e+00  # Hw     TIP4P-Ew
    131      45    2 -1.048  5.093700e+00 -6.482402e+00 -4.950807e+00  # Ow     TIP4P-Ew
    132      45    3  0.524  4.235711e+00 -6.069866e+00 -4.851302e+00  # Hw     TIP4P-Ew
    133      45    3  0.524  4.934693e+00 -7.231386e+00 -5.525240e+00  # Hw     TIP4P-Ew
    134      46    2 -1.048  7.243407e+00  4.879051e+00  9.394890e+00  # Ow     TIP4P-Ew
    135      46    3  0.524  7.562157e+00  5.781597e+00  9.401421e+00  # Hw     TIP4P-Ew
    136      46    3  0.524  8.037098e+00  4.344137e+00  9.407262e+00  # Hw     TIP4P-Ew
    137      47    2 -1.048  6.587700e-01 -2.828555e+00 -2.481282e+00  # Ow     TIP4P-Ew
    138      47    3  0.524  1.452070e-01 -3.535839e+00 -2.871455e+00  # Hw     TIP4P-Ew
    139      47    3  0.524  6.194800e-02 -2.080419e+00 -2.463146e+00  # Hw     TIP4P-Ew
    140      48    2 -1.048 -7.025368e+00  8.051861e+00 -2.887139e+00  # Ow     TIP4P-Ew
    141      48    3  0.524 -6.280935e+00  8.168733e+00 -2.296892e+00  # Hw     TIP4P-Ew
    142      48    3  0.524 -6.757108e+00  7.345517e+00 -3.474800e+00  # Hw     TIP4P-Ew
    143      49    2 -1.048 -1.495781e+00 -7.415690e+00  7.201566e+00  # Ow     TIP4P-Ew
    144      49    3  0.524 -1.319171e+00 -7.595863e+00  6.278215e+00  # Hw     TIP4P-Ew
    145      49    3  0.524 -2.390567e+00 -7.075894e+00  7.212900e+00  # Hw     TIP4P-Ew
    146      50    2 -1.048 -6.822110e-01 -8.666975e+00 -2.079482e+00  # Ow     TIP4P-Ew
    147      50    3  0.524 -1.282450e-01 -9.075241e+00 -1.414146e+00  # Hw     TIP4P-Ew
    148      50    3  0.524 -1.015751e+00 -9.400000e+00 -2.596838e+00  # Hw     TIP4P-Ew
    149      51    2 -1.048  1.288500e+00  1.584826e+00 -6.488010e+00  # Ow     TIP4P-Ew
    150      51    3  0.524  7.848760e-01  2.372283e+00 -6.694177e+00  # Hw     TIP4P-Ew
    151      51    3  0.524  6.475740e-01  8.746320e-01 -6.520733e+00  # Hw     TIP4P-Ew
    152      52    2 -1.048  1.461080e-01  9.150789e+00 -3.546870e+00  # Ow     TIP4P-Ew
    153      52    3  0.524 -7.973490e-01  9.239696e+00 -3.411900e+00  # Hw     TIP4P-Ew
    154      52    3  0.524  5.332610e-01  9.402569e+00 -2.708448e+00  # Hw     TIP4P-Ew
    155      53    2 -1.048  6.899007e+00 -6.726251e+00  9.407114e+00  # Ow     TIP4P-Ew
    156      53    3  0.524  7.080987e+00 -7.665970e+00  9.400524e+00  # Hw     TIP4P-Ew
    157      53    3  0.524  5.943655e+00 -6.666813e+00  9.408071e+00  # Hw     TIP4P-Ew
    158      54    2 -1.048 -2.796888e+00  3.006070e+00  3.589335e+00  # Ow     TIP4P-Ew
    159      54    3  0.524 -2.468529e+00  2.107587e+00  3.555561e+00  # Hw     TIP4P-Ew
    160      54    3  0.524 -3.749573e+00  2.913368e+00  3.594771e+00  # Hw     TIP4P-Ew
    161      55    2 -1.048  7.339211e+00  1.519369e+00  8.677840e+00  # Ow     TIP4P-Ew
    162      55    3  0.524  6.921575e+00  1.967342e+00  7.942223e+00  # Hw     TIP4P-Ew
    163      55    3  0.524  6.707359e+00  8.504180e-01  8.941466e+00  # Hw     TIP4P-Ew
    164      56    2 -1.048  3.765838e+00  6.430930e+00  4.851724e+00  # Ow     TIP4P-Ew
    165      56    3  0.524  4.520992e+00  6.484495e+00  4.265973e+00  # Hw     TIP4P-Ew
    166      56    3  0.524  3.290498e+00  7.248862e+00  4.705881e+00  # Hw     TIP4P-Ew
    167      57    2 -1.048 -1.997556e+00  6.515763e+00 -2.591150e+00  # Ow     TIP4P-Ew
    168      57    3  0.524 -1.484090e+00  5.754635e+00 -2.320469e+00  # Hw     TIP4P-Ew
    169      57    3  0.524 -2.281590e+00  6.309284e+00 -3.481612e+00  # Hw     TIP4P-Ew
    170      58    2 -1.048 -5.434510e+00 -3.323508e+00 -1.854809e+00  # Ow     TIP4P-Ew
    171      58    3  0.524 -5.801293e+00 -2.729288e+00 -1.200130e+00  # Hw     TIP4P-Ew
    172      58    3  0.524 -6.125322e+00 -3.968247e+00 -2.007521e+00  # Hw     TIP4P-Ew
    173      59    2 -1.048 -3.363550e+00 -4.774398e+00 -4.009594e+00  # Ow     TIP4P-Ew
    174      59    3  0.524 -2.636828e+00 -5.394307e+00 -4.071389e+00  # Hw     TIP4P-Ew
    175      59    3  0.524 -2.943277e+00 -3.915513e+00 -3.965789e+00  # Hw     TIP4P-Ew
    176      60    2 -1.048 -3.243808e+00  3.390545e+00  6.565044e+00  # Ow     TIP4P-Ew
    177      60    3  0.524 -4.188230e+00  3.546426e+00  6.565325e+00  # Hw     TIP4P-Ew
    178      60    3  0.524 -2.856211e+00  4.265240e+00  6.534897e+00  # Hw     TIP4P-Ew
    179      61    2 -1.048  9.360129e+00 -9.300155e+00 -7.421681e+00  # Ow     TIP4P-Ew
    180      61    3  0.524  8.425613e+00 -9.401397e+00 -7.240960e+00  # Hw     TIP4P-Ew
    181      61    3  0.524  9.402645e+00 -8.615753e+00 -8.089527e+00  # Hw     TIP4P-Ew
    182      62    2 -1.048 -5.759068e+00 -6.163632e+00  9.152658e+00  # Ow     TIP4P-Ew
    183      62    3  0.524 -4.884566e+00 -6.464615e+00  9.399410e+00  # Hw     TIP4P-Ew
    184      62    3  0.524 -6.220530e+00 -6.959038e+00  8.886924e+00  # Hw     TIP4P-Ew
    185      63    2 -1.048  5.589745e+00 -8.584763e+00  4.126222e+00  # Ow     TIP4P-Ew
    186      63    3  0.524  6.335044e+00 -8.196879e+00  4.584815e+00  # Hw     TIP4P-Ew
    187      63    3  0.524  5.423529e+00 -9.405602e+00  4.589717e+00  # Hw     TIP4P-Ew
    188      64    2 -1.048  2.116217e+00  1.630558e+00 -9.400339e+00  # Ow     TIP4P-Ew
    189      64    3  0.524  2.980483e+00  1.219304e+00 -9.388259e+00  # Hw     TIP4P-Ew
    190      64    3  0.524  1.501343e+00  8.969630e-01 -9.399924e+00  # Hw     TIP4P-Ew
    191      65    2 -1.048 -2.331610e+00 -1.117011e+00  4.167810e+00  # Ow     TIP4P-Ew
    192      65    3  0.524 -2.848009e+00 -1.911558e+00  4.032679e+00  # Hw     TIP4P-Ew
    193      65    3  0.524 -1.452834e+00 -1.434405e+00  4.375765e+00  # Hw     TIP4P-Ew
    194      66    2 -1.048 -7.104249e+00 -3.880099e+00  5.949399e+00  # Ow     TIP4P-Ew
    195      66    3  0.524 -7.000055e+00 -3.579734e+00  6.852259e+00  # Hw     TIP4P-Ew
    196      66    3  0.524 -6.742643e+00 -3.171250e+00  5.417416e+00  # Hw     TIP4P-Ew
    197      67    2 -1.048  1.715864e+00  9.410963e+00  2.115539e+00  # Ow     TIP4P-Ew
    198      67    3  0.524  1.913115e+00  8.507362e+00  2.362174e+00  # Hw     TIP4P-Ew
    199      67    3  0.524  8.797260e-01  9.356359e+00  1.652804e+00  # Hw     TIP4P-Ew
    200      68    2 -1.048  4.273647e+00  8.817714e+00 -2.684623e+00  # Ow     TIP4P-Ew
    201      68    3  0.524  5.032629e+00  9.400679e+00 -2.702775e+00  # Hw     TIP4P-Ew
    202      68    3  0.524  3.525832e+00  9.401268e+00 -2.556292e+00  # Hw     TIP4P-Ew
    203      69    2 -1.048  6.809160e-01 -9.400475e+00  9.400252e+00  # Ow     TIP4P-Ew
    204      69    3  0.524  1.628334e+00 -9.264014e+00  9.397413e+00  # Hw     TIP4P-Ew
    205      69    3  0.524  3.112740e-01 -8.517527e+00  9.399707e+00  # Hw     TIP4P-Ew
    206      70    2 -1.048 -7.199973e+00  2.759069e+00  5.771885e+00  # Ow     TIP4P-Ew
    207      70    3  0.524 -7.470630e+00  1.853981e+00  5.617633e+00  # Hw     TIP4P-Ew
    208      70    3  0.524 -6.684432e+00  2.990382e+00  4.999263e+00  # Hw     TIP4P-Ew
    209      71    2 -1.048 -4.558240e-01 -4.232177e+00  5.736698e+00  # Ow     TIP4P-Ew
    210      71    3  0.524 -8.970600e-01 -4.847877e+00  5.151500e+00  # Hw     TIP4P-Ew
    211      71    3  0.524 -4.208180e-01 -4.685009e+00  6.579283e+00  # Hw     TIP4P-Ew
    212      72    2 -1.048  6.399316e+00  6.253801e+00 -1.481661e+00  # Ow     TIP4P-Ew
    213      72    3  0.524  5.449184e+00  6.286726e+00 -1.593007e+00  # Hw     TIP4P-Ew
    214      72    3  0.524  6.574393e+00  5.363879e+00 -1.175690e+00  # Hw     TIP4P-Ew
    215      73    2 -1.048 -5.605900e-02 -8.580501e+00 -9.342395e+00  # Ow     TIP4P-Ew
    216      73    3  0.524 -5.473300e-01 -9.400000e+00 -9.399895e+00  # Hw     TIP4P-Ew
    217      73    3  0.524 -7.273030e-01 -7.898122e+00 -9.337703e+00  # Hw     TIP4P-Ew
    218      74    2 -1.048  2.352336e+00 -8.869779e+00  1.806169e+00  # Ow     TIP4P-Ew
    219      74    3  0.524  1.720036e+00 -9.400000e+00  2.291241e+00  # Hw     TIP4P-Ew
    220      74    3  0.524  2.200388e+00 -9.095009e+00  8.883380e-01  # Hw     TIP4P-Ew
    221      75    2 -1.048 -2.601334e+00  1.065360e+00  9.403103e+00  # Ow     TIP4P-Ew
    222      75    3  0.524 -2.363314e+00  1.276598e+00  8.500354e+00  # Hw     TIP4P-Ew
    223      75    3  0.524 -3.074221e+00  2.356220e-01  9.338730e+00  # Hw     TIP4P-Ew
    224      76    2 -1.048  5.283272e+00 -8.553180e-01  2.806840e+00  # Ow     TIP4P-Ew
    225      76    3  0.524  4.692376e+00 -4.387100e-01  3.434145e+00  # Hw     TIP4P-Ew
    226      76    3  0.524  4.731322e+00 -1.478846e+00  2.334830e+00  # Hw     TIP4P-Ew
    227      77    2 -1.048 -2.197350e+00 -4.983074e+00  9.387817e+00  # Ow     TIP4P-Ew
    228      77    3  0.524 -1.306509e+00 -5.333024e+00  9.400825e+00  # Hw     TIP4P-Ew
    229      77    3  0.524 -2.081912e+00 -4.032862e+00  9.385903e+00  # Hw     TIP4P-Ew
    230      78    2 -1.048  9.400990e+00 -4.799570e-01 -2.399329e+00  # Ow     TIP4P-Ew
    231      78    3  0.524  9.400574e+00  2.832640e-01 -2.977018e+00  # Hw     TIP4P-Ew
    232      78    3  0.524  9.191764e+00 -1.216164e+00 -2.974181e+00  # Hw     TIP4P-Ew
    233      79    2 -1.048  2.125729e+00 -6.384651e+00 -8.549330e-01  # Ow     TIP4P-Ew
    234      79    3  0.524  1.664271e+00 -6.419836e+00 -1.692818e+00  # Hw     TIP4P-Ew
    235      79    3  0.524  1.760254e+00 -5.619046e+00 -4.116400e-01  # Hw     TIP4P-Ew
    236      80    2 -1.048  3.587894e+00 -8.584839e+00 -8.485588e+00  # Ow     TIP4P-Ew
    237      80    3  0.524  4.230222e+00 -9.178617e+00 -8.096905e+00  # Hw     TIP4P-Ew
    238      80    3  0.524  3.238806e+00 -9.066492e+00 -9.235508e+00  # Hw     TIP4P-Ew
    239      81    2 -1.048  3.225690e+00  3.148154e+00  3.262188e+00  # Ow     TIP4P-Ew
    240      81    3  0.524  3.789185e+00  2.450872e+00  2.926773e+00  # Hw     TIP4P-Ew
    241      81    3  0.524  3.747626e+00  3.571521e+00  3.943786e+00  # Hw     TIP4P-Ew
    242      82    2 -1.048  2.942243e+00  2.509980e-01 -3.077210e-01  # Ow     TIP4P-Ew
    243      82    3  0.524  2.132207e+00 -9.726200e-02  6.482300e-02  # Hw     TIP4P-Ew
    244      82    3  0.524  3.429636e+00  5.833330e-01  4.460910e-01  # Hw     TIP4P-Ew
    245      83    2 -1.048 -9.401580e+00 -6.595217e+00 -8.296856e+00  # Ow     TIP4P-Ew
    246      83    3  0.524 -9.141641e+00 -6.379563e+00 -9.192488e+00  # Hw     TIP4P-Ew
    247      83    3  0.524 -9.357362e+00 -5.762434e+00 -7.827017e+00  # Hw     TIP4P-Ew
    248      84    2 -1.048 -7.344750e+00  2.641917e+00 -3.904253e+00  # Ow     TIP4P-Ew
    249      84    3  0.524 -8.093561e+00  2.438196e+00 -3.343885e+00  # Hw     TIP4P-Ew
    250      84    3  0.524 -6.632794e+00  2.103560e+00 -3.558534e+00  # Hw     TIP4P-Ew
    251      85    2 -1.048  7.854860e-01  4.222190e-01  2.928850e+00  # Ow     TIP4P-Ew
    252      85    3  0.524  6.823000e-01  1.361935e+00  2.778785e+00  # Hw     TIP4P-Ew
    253      85    3  0.524  1.508997e+00  3.567450e-01  3.552129e+00  # Hw     TIP4P-Ew
    254      86    2 -1.048 -9.341633e+00 -1.235217e+00  9.400263e+00  # Ow     TIP4P-Ew
    255      86    3  0.524 -8.482082e+00 -1.429121e+00  9.026359e+00  # Hw     TIP4P-Ew
    256      86    3  0.524 -9.400595e+00 -2.799790e-01  9.383710e+00  # Hw     TIP4P-Ew
    257      87    2 -1.048 -9.166819e+00  4.472777e+00  3.812623e+00  # Ow     TIP4P-Ew
    258      87    3  0.524 -9.400112e+00  3.582944e+00  3.548043e+00  # Hw     TIP4P-Ew
    259      87    3  0.524 -9.401096e+00  4.516710e+00  4.739669e+00  # Hw     TIP4P-Ew
    260      88    2 -1.048 -6.029702e+00 -8.866993e+00  2.366091e+00  # Ow     TIP4P-Ew
    261      88    3  0.524 -5.253899e+00 -9.400069e+00  2.539847e+00  # Hw     TIP4P-Ew
    262      88    3  0.524 -6.088105e+00 -8.832277e+00  1.411305e+00  # Hw     TIP4P-Ew
    263      89    2 -1.048 -1.234255e+00  4.701697e+00 -5.787753e+00  # Ow     TIP4P-Ew
    264      89    3  0.524 -4.399390e-01  5.234573e+00 -5.751187e+00  # Hw     TIP4P-Ew
    265      89    3  0.524 -1.721962e+00  5.048852e+00 -6.534651e+00  # Hw     TIP4P-Ew
    266      90    2 -1.048 -3.672930e+00 -6.638775e+00  2.935103e+00  # Ow     TIP4P-Ew
    267      90    3  0.524 -3.201563e+00 -5.841259e+00  3.175963e+00  # Hw     TIP4P-Ew
    268      90    3  0.524 -3.783669e+00 -6.574866e+00  1.986480e+00  # Hw     TIP4P-Ew
    269      91    2 -1.048 -9.211579e+00  5.082050e-01  2.962282e+00  # Ow     TIP4P-Ew
    270      91    3  0.524 -8.260215e+00  4.882260e-01  3.065919e+00  # Hw     TIP4P-Ew
    271      91    3  0.524 -9.398383e+00 -1.832430e-01  2.327274e+00  # Hw     TIP4P-Ew
    272      92    2 -1.048  9.933010e-01  5.027121e+00  8.258188e+00  # Ow     TIP4P-Ew
    273      92    3  0.524  8.191780e-01  5.917746e+00  7.953720e+00  # Hw     TIP4P-Ew
    274      92    3  0.524  1.354110e-01  4.602567e+00  8.261394e+00  # Hw     TIP4P-Ew
    275      93    2 -1.048 -3.524927e+00  5.391871e+00  9.280785e+00  # Ow     TIP4P-Ew
    276      93    3  0.524 -2.571409e+00  5.325361e+00  9.331880e+00  # Hw     TIP4P-Ew
    277      93    3  0.524 -3.834846e+00  4.494105e+00  9.399939e+00  # Hw     TIP4P-Ew
    278      94    2 -1.048 -7.770198e+00 -9.345128e+00 -8.203063e+00  # Ow     TIP4P-Ew
    279      94    3  0.524 -7.053614e+00 -9.259358e+00 -7.574269e+00  # Hw     TIP4P-Ew
    280      94    3  0.524 -8.558060e+00 -9.403361e+00 -7.662588e+00  # Hw     TIP4P-Ew
    281      95    2 -1.048 -4.674308e+00 -9.289200e+00 -9.400053e+00  # Ow     TIP4P-Ew
    282      95    3  0.524 -4.812265e+00 -8.341994e+00 -9.399709e+00  # Hw     TIP4P-Ew
    283      95    3  0.524 -3.722767e+00 -9.393131e+00 -9.400183e+00  # Hw     TIP4P-Ew
    284      96    2 -1.048  9.077126e+00  8.827110e-01  6.160520e+00  # Ow     TIP4P-Ew
    285      96    3  0.524  9.401117e+00  6.094760e-01  5.302263e+00  # Hw     TIP4P-Ew
    286      96    3  0.524  9.402164e+00  1.776806e+00  6.266231e+00  # Hw     TIP4P-Ew
    287      97    2 -1.048  6.445893e+00 -2.100150e-01 -4.425418e+00  # Ow     TIP4P-Ew
    288      97    3  0.524  5.563254e+00  6.241000e-03 -4.124730e+00  # Hw     TIP4P-Ew
    289      97    3  0.524  6.790152e+00  6.135130e-01 -4.771132e+00  # Hw     TIP4P-Ew
    290      98    2 -1.048 -6.313237e+00 -6.395365e+00  4.335731e+00  # Ow     TIP4P-Ew
    291      98    3  0.524 -7.181669e+00 -6.783882e+00  4.230314e+00  # Hw     TIP4P-Ew
    292      98    3  0.524 -6.065315e+00 -6.602733e+00  5.236711e+00  # Hw     TIP4P-Ew
    293      99    2 -1.048 -1.911589e+00 -9.398166e+00 -5.927148e+00  # Ow     TIP4P-Ew
    294      99    3  0.524 -2.137262e+00 -9.323276e+00 -6.854346e+00  # Hw     TIP4P-Ew
    295      99    3  0.524 -1.651339e+00 -8.513278e+00 -5.671266e+00  # Hw     TIP4P-Ew
    296     100    2 -1.048 -8.998828e+00 -3.775488e+00 -4.914937e+00  # Ow     TIP4P-Ew
    297     100    3  0.524 -9.399973e+00 -4.644550e+00 -4.908132e+00  # Hw     TIP4P-Ew
    298     100    3  0.524 -9.400028e+00 -3.331826e+00 -5.662222e+00  # Hw     TIP4P-Ew
    299     101    2 -1.048  6.673829e+00 -6.427692e+00 -1.609051e+00  # Ow     TIP4P-Ew
    300     101    3  0.524  6.697998e+00 -6.965359e+00 -2.400608e+00  # Hw     TIP4P-Ew
    301     101    3  0.524  6.066977e+00 -5.717977e+00 -1.819449e+00  # Hw     TIP4P-Ew
    302     102    2 -1.048  9.400082e+00 -2.149705e+00 -6.346272e+00  # Ow     TIP4P-Ew
    303     102    3  0.524  9.399239e+00 -2.924821e+00 -5.784644e+00  # Hw     TIP4P-Ew
    304     102    3  0.524  8.494557e+00 -1.839927e+00 -6.329116e+00  # Hw     TIP4P-Ew
    305     103    2 -1.048  3.953014e+00  2.698818e+00  9.359349e+00  # Ow     TIP4P-Ew
    306     103    3  0.524  3.175721e+00  3.254642e+00  9.303617e+00  # Hw     TIP4P-Ew
    307     103    3  0.524  4.684608e+00  3.313861e+00  9.411538e+00  # Hw     TIP4P-Ew
    308     104    2 -1.048  1.111535e+00  6.766564e+00 -6.484200e-01  # Ow     TIP4P-Ew
    309     104    3  0.524  1.817747e+00  7.335341e+00 -9.549960e-01  # Hw     TIP4P-Ew
    310     104    3  0.524  3.671330e-01  7.354943e+00 -5.222960e-01  # Hw     TIP4P-Ew
    311     105    2 -1.048 -3.228569e+00  6.756783e+00  4.173371e+00  # Ow     TIP4P-Ew
    312     105    3  0.524 -3.555582e+00  5.886282e+00  3.946389e+00  # Hw     TIP4P-Ew
    313     105    3  0.524 -2.437536e+00  6.589882e+00  4.685859e+00  # Hw     TIP4P-Ew
    314     106    2 -1.048 -4.743902e+00  4.884707e+00 -2.284709e+00  # Ow     TIP4P-Ew
    315     106    3  0.524 -5.698168e+00  4.825701e+00 -2.238598e+00  # Hw     TIP4P-Ew
    316     106    3  0.524 -4.455751e+00  3.987301e+00 -2.451628e+00  # Hw     TIP4P-Ew
    317     107    2 -1.048  9.400745e+00  3.175351e+00 -1.247980e+00  # Ow     TIP4P-Ew
    318     107    3  0.524  9.356975e+00  3.627230e+00 -4.052930e-01  # Hw     TIP4P-Ew
    319     107    3  0.524  8.525682e+00  2.806527e+00 -1.368253e+00  # Hw     TIP4P-Ew
    320     108    2 -1.048  8.456402e+00  9.371498e+00  2.263070e-01  # Ow     TIP4P-Ew
    321     108    3  0.524  9.399976e+00  9.401249e+00  6.814500e-02  # Hw     TIP4P-Ew
    322     108    3  0.524  8.371772e+00  9.400665e+00  1.179312e+00  # Hw     TIP4P-Ew
    323     109    2 -1.048 -7.870084e+00 -8.705970e-01 -3.420143e+00  # Ow     TIP4P-Ew
    324     109    3  0.524 -7.318724e+00 -1.550760e+00 -3.806940e+00  # Hw     TIP4P-Ew
    325     109    3  0.524 -8.676696e+00 -1.325002e+00 -3.176989e+00  # Hw     TIP4P-Ew
    326     110    2 -1.048  5.977537e+00  5.008467e+00  6.433408e+00  # Ow     TIP4P-Ew
    327     110    3  0.524  5.180064e+00  4.572678e+00  6.734003e+00  # Hw     TIP4P-Ew
    328     110    3  0.524  5.942610e+00  5.876593e+00  6.835116e+00  # Hw     TIP4P-Ew
    329     111    2 -1.048 -1.675600e-01  1.720658e+00  6.506913e+00  # Ow     TIP4P-Ew
    330     111    3  0.524 -4.693270e-01  1.336909e+00  5.683564e+00  # Hw     TIP4P-Ew
    331     111    3  0.524  7.669750e-01  1.876616e+00  6.370707e+00  # Hw     TIP4P-Ew
    332     112    2 -1.048 -8.667781e+00  8.797241e+00 -5.803543e+00  # Ow     TIP4P-Ew
    333     112    3  0.524 -9.410257e+00  9.400692e+00 -5.831959e+00  # Hw     TIP4P-Ew