LAMMPS (12 Apr 2014)
  orthogonal box = (-11.356 -11.356 -11.356) to (11.356 11.356 11.356)
  1 by 1 by 2 MPI processor grid
  reading atoms ...
  649 atoms
  scanning bonds ...
  1 = max bonds/atom
  scanning angles ...
  1 = max angles/atom
  reading bonds ...
  432 bonds
  reading angles ...
  216 angles
  2 = max # of 1-2 neighbors
  1 = max # of 1-3 neighbors
  1 = max # of 1-4 neighbors
  2 = max # of special neighbors
  0 = # of size 2 clusters
  0 = # of size 3 clusters
  0 = # of size 4 clusters
  216 = # of frozen angles
PPPM initialization ...
  G vector (1/distance) = 0.283959
  grid = 15 15 15
  stencil order = 5
  estimated absolute RMS force accuracy = 0.0120694
  estimated relative force accuracy = 3.63466e-05
  using double precision FFTs
  3d grid and FFT values/proc = 6776 1800
Memory usage per processor = 5.1749 Mbytes
Step TotEng PotEng KinEng E_vdwl E_coul E_long Temp Press 
       0    595.98782    16.518344    579.46947   -119.76457     18826.16   -18689.877          450    6855.9328 
      30    300.65176   -631.58012    932.23188   -133.40824    18357.206   -18855.378    723.94555   -3202.4236 
      60    202.54127   -647.54546    850.08672   -125.24294    18344.776   -18867.078    660.15389   -2887.6528 
      90    93.254562   -707.30977    800.56433   -101.80095     18258.35   -18863.859    621.69616   -2822.6666 
     120   -14.931808   -745.70473    730.77292   -74.018352     18204.24   -18875.927    567.49808   -2237.7742 
     150   -122.51603   -857.95252    735.43649   -25.012312    18032.969   -18865.909    571.11968   -1992.1139 
     180    -231.0422   -914.15155    683.10936    25.313659    17936.221   -18875.687    530.48387    -1209.035 
     210   -330.02356   -979.22937    649.20581    55.727696    17850.273    -18885.23    504.15531   -996.30827 
     240   -423.76115    -1060.084    636.32288    71.152849    17756.103    -18887.34    494.15079   -1106.5977 
     270   -513.02272   -1097.2461    584.22337    82.199174     17713.62   -18893.065    453.69174   -1005.5709 
     300   -592.11866   -1161.7925    569.67381    120.71525    17607.422   -18889.929    442.39295   -785.03501 
Loop time of 1.06071 on 2 procs for 300 steps with 649 atoms
