LAMMPS (30 Sep 2014-ICMS)
WARNING: OMP_NUM_THREADS environment is not set. (../comm.cpp:88)
  using 1 OpenMP thread(s) per MPI task
  orthogonal box = (-9.36391 -9.36391 -9.36391) to (9.36391 9.36391 9.36391)
  1 by 1 by 1 MPI processor grid
  reading atoms ...
  649 atoms
  reading velocities ...
  649 velocities
  scanning bonds ...
  1 = max bonds/atom
  scanning angles ...
  1 = max angles/atom
  reading bonds ...
  432 bonds
  reading angles ...
  216 angles
  2 = max # of 1-2 neighbors
  1 = max # of 1-3 neighbors
  1 = max # of 1-4 neighbors
  2 = max # of special neighbors
PPPM initialization ...
  G vector (1/distance) = 0.266541
  grid = 10 10 10
  stencil order = 5
  estimated absolute RMS force accuracy = 0.0275322
  estimated relative force accuracy = 8.29123e-05
  using double precision FFTs
  3d grid and FFT values/proc = 4913 1000
FEP settings ...
  temperature = 300.000000
  tail yes
  1-1 charge
  lj/cut/coul/long epsilon 3-3 3-3
Memory usage per processor = 6.49501 Mbytes
Step qNa epsOO PotEng E_vdwl E_coul E_long ecoul_to cFEP[1] 
WARNING: System is not charge neutral, net charge = 0.1 (../kspace.cpp:291)
       0       0.0000       0.1554   -2384.4632     435.7262    8806.8609  -11627.0508   -2820.1899     -27.0211 
       1       0.1000       0.1454   -2411.4843     407.7508    8808.0854  -11627.3209   -2819.2355     -27.5245 
       2       0.2000       0.1354   -2439.0088     379.7753    8809.3098  -11628.0944   -2818.7846     -28.0278 
       3       0.3000       0.1254   -2467.0366     351.7999    8810.5343  -11629.3713   -2818.8370     -28.5312 
       4       0.4000       0.1154   -2495.5679     323.8244    8811.7588  -11631.1515   -2819.3927     -29.0346 
       5       0.5000       0.1054   -2524.6024     295.8490    8812.9832  -11633.4351   -2820.4518     -29.5379 
       6       0.6000       0.0954   -2554.1403     267.8735    8814.2077  -11636.2220   -2822.0143     -30.0413 
       7       0.7000       0.0854   -2584.1816     239.8981    8815.4322  -11639.5123   -2824.0801     -30.5446 
       8       0.8000       0.0754   -2614.7262     211.9226    8816.6566  -11643.3059   -2826.6493     -31.0480 
       9       0.9000       0.0654   -2645.7742     183.9471    8817.8811  -11647.6029   -2829.7218     -31.5513 
      10       1.0000       0.0554   -2677.3255     155.9717    8819.1055  -11652.4032   -2833.2977     -32.0547 

Loop time of 0.202687 on 1 procs for 10 steps with 649 atoms
99.6% CPU use with 1 MPI tasks x 1 OpenMP threads
PPPM initialization ...
  G vector (1/distance) = 0.266541
  grid = 10 10 10
  stencil order = 5
  estimated absolute RMS force accuracy = 0.0275322
  estimated relative force accuracy = 8.29123e-05
  using double precision FFTs
  3d grid and FFT values/proc = 4913 1000
Memory usage per processor = 6.37001 Mbytes
Step qNa epsOO PotEng E_vdwl E_coul E_long ecoul_to cFEP[1] 
      10       0.0000       0.1554   -2384.4632     435.7262    8806.8609  -11627.0508   -2820.1899     -27.0211 

Loop time of 9.53674e-07 on 1 procs for 0 steps with 649 atoms
104.9% CPU use with 1 MPI tasks x 1 OpenMP threads
