LAMMPS (30 Sep 2014-ICMS)
WARNING: OMP_NUM_THREADS environment is not set. (../comm.cpp:88)
  using 1 OpenMP thread(s) per MPI task
  orthogonal box = (-11.356 -11.356 -11.356) to (11.356 11.356 11.356)
  1 by 1 by 1 MPI processor grid
  reading atoms ...
  649 atoms
  scanning bonds ...
  1 = max bonds/atom
  scanning angles ...
  1 = max angles/atom
  reading bonds ...
  432 bonds
  reading angles ...
  216 angles
  2 = max # of 1-2 neighbors
  1 = max # of 1-3 neighbors
  1 = max # of 1-4 neighbors
  2 = max # of special neighbors
  0 = # of size 2 clusters
  0 = # of size 3 clusters
  0 = # of size 4 clusters
  216 = # of frozen angles
PPPM initialization ...
  G vector (1/distance) = 0.265649
  grid = 12 12 12
  stencil order = 5
  estimated absolute RMS force accuracy = 0.0216175
  estimated relative force accuracy = 6.51006e-05
  using double precision FFTs
  3d grid and FFT values/proc = 6859 1728
Memory usage per processor = 7.23959 Mbytes
Step TotEng PotEng KinEng E_vdwl E_coul E_long Temp Press 
       0    467.26484   -112.20463    579.46947   -117.98409    11459.985   -11454.205          450   -1337.5049 
      30    151.00475   -643.14331    794.14806   -128.55884    11036.992   -11551.576    616.71346   -2726.9133 
      60    63.150435   -737.15372    800.30416   -118.98105    10926.879   -11545.051    621.49412   -3108.7203 
      90   -37.946008   -848.53016    810.58415   -66.177271     10775.53   -11557.882    629.47728   -2665.2411 
     120   -150.37868   -886.19112    735.81243  -0.61520548    10666.751   -11552.327    571.41163   -1433.9082 
     150   -260.55079    -1038.707    778.15622    48.923808    10470.154   -11557.785    604.29464   -1242.1648 
     180   -376.43513   -1082.0879    705.65275    112.32112      10373.1   -11567.509    547.99045   -192.03784 
     210   -488.73347   -1195.8796    707.14613    110.30096    10255.782   -11561.963    549.15017   -782.15529 
     240   -592.20937   -1216.3243    624.11491    130.39801    10220.835   -11567.557    484.67041   -354.35541 
     270   -684.32916   -1272.8402    588.51108    153.52125    10137.629    -11563.99    457.02147   -476.23944 
     300   -772.25483   -1359.0262     586.7714    162.86596     10040.25   -11562.142    455.67047   -896.64978 

Loop time of 0.991213 on 1 procs for 300 steps with 649 atoms
99.8% CPU use with 1 MPI tasks x 1 OpenMP threads
