LAMMPS data file via write_data, version 11 Nov 2013, timestep = 1000000

1085 atoms
4 atom types
724 bonds
2 bond types
366 angles
2 angle types

-1.1139598040478699e+01 1.1139598040478699e+01 xlo xhi
-1.1139598040478699e+01 1.1139598040478699e+01 ylo yhi
-1.1139598040478699e+01 1.1139598040478699e+01 zlo zhi

Masses

1 12.011
2 1.008
3 1.008
4 15.999

Bond Coeffs

1 340 1.09
2 517.6 1

Angle Coeffs

1 33 107.8
2 37.95 109.47

Atoms

11 3 3 4.2399999999999999e-01 -9.8634041302114159e+00 -1.0766772516039014e+01 -9.8783147962770936e+00 3 0 1
59 19 3 4.2399999999999999e-01 -8.2773101854568480e+00 -2.0659679310776902e-01 -5.8993682539095360e+00 1 1 0
750 250 3 4.2399999999999999e-01 -9.5582946674093456e+00 -6.3134124308000050e+00 -6.9768471557168876e+00 1 0 1
661 220 4 -8.4799999999999998e-01 -1.3203601091216211e+00 -8.5446014465710221e+00 -7.9960565135956365e+00 0 0 0
749 249 3 4.2399999999999999e-01 -6.8249039930619979e+00 -8.4238442947716656e+00 -2.9747382152853046e+00 0 -1 -1
910 303 4 -8.4799999999999998e-01 -3.5280174487833635e+00 -3.3486329012363250e+00 -3.5477451476685093e+00 2 0 1
911 303 3 4.2399999999999999e-01 -3.0442162333437146e+00 -4.1747350025099861e+00 -3.8366701249750381e+00 2 0 1
789 263 3 4.2399999999999999e-01 -4.7172460583311837e+00 -8.8661070985291435e+00 -1.0351284510183909e+01 3 0 -1
671 223 3 4.2399999999999999e-01 -1.9921889545552744e+00 -9.8450375514719841e+00 -4.3399828512583305e-01 1 0 -1
623 207 3 4.2399999999999999e-01 -8.9292398219842077e+00 -7.4984771244593453e+00 -1.0876861847228966e+01 0 -1 1
151 50 4 -8.4799999999999998e-01 -1.5403062508860401e+00 -6.8850850231199070e+00 -1.8624368344243241e+00 -1 0 -1
1061 353 3 4.2399999999999999e-01 -1.0437639324480811e+01 -5.2246273479810155e+00 -8.2956591252564849e-01 1 1 1
531 177 3 4.2399999999999999e-01 -7.3756721227114124e+00 -6.4629836371282146e-01 -9.3270406394504413e+00 2 1 2
782 260 3 4.2399999999999999e-01 -3.1018365196527373e+00 -8.0272526817477008e-01 -4.5918042022340959e+00 -1 0 0
108 36 3 4.2399999999999999e-01 -6.2835786651406123e+00 -1.3230265222175426e+00 -3.5771130152012098e+00 2 0 1
1006 335 4 -8.4799999999999998e-01 -6.5049055389772370e+00 -1.0238066862301167e+01 -5.9338682804257186e+00 0 0 0
547 182 4 -8.4799999999999998e-01 -3.7512571470805343e+00 -4.0710829964439963e+00 -6.2526175946459555e+00 1 0 0
936 312 3 4.2399999999999999e-01 -2.5471431037910826e+00 -1.2476685302896211e+00 -1.5177097004852769e+00 0 -2 -1
848 282 3 4.2399999999999999e-01 -5.6762615616111640e+00 -1.0577326002927382e+01 -1.1073643194225424e+01 2 0 0
1007 335 3 4.2399999999999999e-01 -6.8826537721597658e+00 -9.6840632122228811e+00 -6.6757390010572362e+00 0 0 0
1048 349 4 -8.4799999999999998e-01 -8.9349834082080655e+00 -1.2817463296817078e+00 -4.4551134266683183e+00 -1 0 0
134 44 3 4.2399999999999999e-01 -5.0542357863332015e+00 -6.7551973997986643e+00 -4.3865240482001866e-01 1 1 -1
937 312 4 -8.4799999999999998e-01 -2.2958131084785336e+00 -2.1847584850421651e+00 -1.2754668937557749e+00 0 -2 -1
1080 360 3 4.2399999999999999e-01 -2.9349444443715864e+00 -3.6141763940881342e+00 -4.2533220436428287e-01 2 0 0
759 253 3 4.2399999999999999e-01 -3.5294264402217346e+00 -1.0959911915158363e+01 -5.9388403554880318e+00 2 -1 -1
981 327 3 4.2399999999999999e-01 -6.9725832681106903e+00 -1.7801819623808406e+00 -1.7112429158935214e+00 1 2 1
320 106 3 4.2399999999999999e-01 -9.6137787094497362e-01 -4.1718711973404359e+00 -1.0745953148162553e+01 -1 1 -1
1049 349 3 4.2399999999999999e-01 -9.0030576901441286e+00 -5.9458759582260434e-01 -3.7318115765187132e+00 -1 0 0
670 223 4 -8.4799999999999998e-01 -1.3230971018867592e+00 -1.0328466872882021e+01 -9.9844374164311844e-01 1 0 -1
970 323 4 -8.4799999999999998e-01 -9.1845007861945245e+00 -3.5750751650042965e+00 -1.6276314341975855e+00 -1 -1 1
882 294 3 4.2399999999999999e-01 -4.2079088695765474e+00 -6.1866917072064735e+00 -1.0638019832811660e+01 1 1 -1
132 44 3 4.2399999999999999e-01 -3.7747538642579093e+00 -5.7511766956596313e+00 -5.8513647216510201e-01 1 1 -1
190 63 4 -8.4799999999999998e-01 -2.3789941320374695e+00 -5.6827080565099326e+00 -4.1172078090136859e+00 2 -1 2
881 293 3 4.2399999999999999e-01 -1.9181042699660527e+00 -5.8435065454837423e+00 -7.4296977463929661e+00 0 1 2
621 207 3 4.2399999999999999e-01 -7.3213961986851608e+00 -7.7769998198391459e+00 -1.0938933908917136e+01 0 -1 1
347 115 3 4.2399999999999999e-01 -7.8903601126607130e+00 -6.4000347376216622e+00 -2.4736789578522540e+00 1 2 -1
921 307 3 4.2399999999999999e-01 -6.4677146870726734e+00 -3.5031292142792125e+00 -4.2474161393684104e+00 2 2 2
57 19 3 4.2399999999999999e-01 -7.6335338769728640e+00 -2.7572201937716834e-01 -7.3984888892680987e+00 1 1 0
99 33 3 4.2399999999999999e-01 -4.6294683579871085e+00 -3.2801295406106767e-01 -2.3977274710347096e-01 0 0 1
90 30 3 4.2399999999999999e-01 -4.0893983393142239e+00 -8.1770229793093847e+00 -5.7715927028410245e+00 3 0 0
548 182 3 4.2399999999999999e-01 -4.0898731328660780e+00 -3.8084772840006185e+00 -5.3490887282832587e+00 1 0 0
669 223 3 4.2399999999999999e-01 -5.5394180830277762e-01 -9.7211550312540034e+00 -1.1973378151880425e+00 1 0 -1
971 323 3 4.2399999999999999e-01 -8.6001567392071347e+00 -2.7790195846859582e+00 -1.4700756054382218e+00 -1 -1 1
312 104 3 4.2399999999999999e-01 -6.3421170304843386e+00 -4.9255477622032817e+00 -6.1299121920913118e+00 -1 1 -1
732 244 3 4.2399999999999999e-01 -1.0921812883058735e+01 -1.2589107771105859e+00 -4.1009409562245347e+00 1 1 2
609 203 3 4.2399999999999999e-01 -2.6085865194021238e+00 -8.1508811952390783e+00 -9.5942276204071923e+00 1 1 2
314 104 3 4.2399999999999999e-01 -6.7406588196028254e+00 -5.8548980637280454e+00 -7.4121219695374885e+00 -1 1 -1
748 249 4 -8.4799999999999998e-01 -7.2067666779202746e+00 -9.2828114439247198e+00 -3.3158283658180991e+00 0 -1 -1
207 69 3 4.2399999999999999e-01 -1.5801733003065621e+00 -1.1067456119772960e+01 -2.6513518429150000e+00 1 0 1
1005 335 3 4.2399999999999999e-01 -5.5062485786612543e+00 -1.0226077203398326e+01 -5.9841331904400539e+00 0 0 0
790 263 4 -8.4799999999999998e-01 -5.6699160198709899e+00 -9.1630784023305676e+00 -1.0286358007584019e+01 3 0 -1
313 104 4 -8.4799999999999998e-01 -5.9863105571487116e+00 -5.5334048641690572e+00 -6.8397695751495249e+00 -1 1 -1
831 277 3 4.2399999999999999e-01 -8.2397911501081023e+00 -4.1761017354153687e+00 -9.5698432191959331e+00 2 -1 0
269 89 3 4.2399999999999999e-01 -1.0334836677491692e+01 -1.0530157364208378e+01 -5.1500415976846607e+00 0 0 2
150 50 3 4.2399999999999999e-01 -2.3965715528644083e+00 -7.2416038467371777e+00 -1.4886847610118359e+00 -1 0 -1
556 185 4 -8.4799999999999998e-01 -2.9261185050248688e+00 -1.4856909166887533e-01 -7.9826833862734095e+00 0 2 1
761 253 3 4.2399999999999999e-01 -2.8313040799892750e+00 -9.5033497047162037e+00 -6.1789257041187815e+00 2 -1 -1
747 249 3 4.2399999999999999e-01 -7.0423619427772266e+00 -9.3532458910072549e+00 -4.2996962352434842e+00 0 -1 -1
684 228 3 4.2399999999999999e-01 -1.0262400247639883e+01 -6.4120422393690513e+00 -2.8957245114843850e+00 2 1 1
832 277 4 -8.4799999999999998e-01 -9.2173442390688916e+00 -4.3055958001722905e+00 -9.4036890501647203e+00 2 -1 0
520 173 4 -8.4799999999999998e-01 -9.8701464562734458e+00 -9.2351839213205196e+00 -1.2103667197168040e+00 0 -1 -1
760 253 4 -8.4799999999999998e-01 -3.7010641165296727e+00 -9.9822086801289576e+00 -6.0597696839939648e+00 2 -1 -1
780 260 3 4.2399999999999999e-01 -4.4341505495878648e+00 -7.2307108965121536e-01 -5.5326461625164640e+00 -1 0 0
109 36 4 -8.4799999999999998e-01 -6.1215543710669831e+00 -2.2322624179232609e+00 -3.1936749605361765e+00 2 0 1
821 273 3 4.2399999999999999e-01 -4.3486083561844415e+00 -2.0601145867969670e+00 -7.0026494035903140e+00 0 0 1
156 52 3 4.2399999999999999e-01 -2.7716399961627882e+00 -3.1086038485873555e+00 -9.4054313517972012e+00 0 -1 0
791 263 3 4.2399999999999999e-01 -6.0920430064652802e+00 -8.7543655226395316e+00 -9.4771923172246666e+00 3 0 -1
1028 342 3 4.2399999999999999e-01 -5.6789953738869947e+00 -4.0976849608572579e+00 -1.0537807694500927e+01 -2 -1 1
213 71 3 4.2399999999999999e-01 -5.4154461235084730e+00 -1.0338023789222145e+01 -3.0704299030385105e+00 3 1 2
752 250 3 4.2399999999999999e-01 -8.9288650890555310e+00 -5.7799561441567633e+00 -8.3860425661723887e+00 1 0 1
546 182 3 4.2399999999999999e-01 -4.3612012601437131e+00 -4.7560947360967418e+00 -6.6510071834761764e+00 1 0 0
98 32 3 4.2399999999999999e-01 -1.0582510523170306e+01 -1.3532736760371034e+00 -8.1173795216154474e+00 1 -1 0
799 266 4 -8.4799999999999998e-01 -1.8238411460540540e+00 -2.0966683398969437e+00 -6.4956394431906128e+00 0 -1 0
441 147 3 4.2399999999999999e-01 -7.8996195820506587e+00 -8.0527675894017410e+00 -7.6321713690935855e+00 -1 1 1
82 27 4 -8.4799999999999998e-01 -6.2408347566233724e+00 -6.6779636845528128e+00 -2.8645464179952267e+00 -1 -1 1
610 203 4 -8.4799999999999998e-01 -3.2648551502651166e+00 -7.9693862071314321e+00 -1.0326591596699290e+01 1 1 2
300 100 3 4.2399999999999999e-01 -3.8304994291366761e+00 -1.2912146310970858e+00 -9.0622196045328547e+00 1 -1 1
301 100 4 -8.4799999999999998e-01 -4.0751112438198307e+00 -2.1617500289074165e+00 -9.4892095316290401e+00 1 -1 1
92 30 3 4.2399999999999999e-01 -4.5804369935074156e+00 -6.8171742424899016e+00 -6.5307248184003699e+00 3 0 0
81 27 3 4.2399999999999999e-01 -6.2734014125902782e+00 -5.7472157154965453e+00 -3.2287352960817888e+00 -1 -1 1
662 220 3 4.2399999999999999e-01 -3.5085949169501873e-01 -8.7056304231001782e+00 -8.1807870543082650e+00 0 0 0
83 27 3 4.2399999999999999e-01 -5.4221072790502571e+00 -6.7868357645490063e+00 -2.3007926245336741e+00 -1 -1 1
781 260 4 -8.4799999999999998e-01 -3.9631421403742548e+00 -3.1936277978886984e-01 -4.7483267975908348e+00 -1 0 0
884 294 3 4.2399999999999999e-01 -3.5242588998622484e+00 -4.8776313945680991e+00 -9.9411892942661506e+00 1 1 -1
104 34 3 4.2399999999999999e-01 -1.0402417781652025e+01 -3.7834268436933414e+00 -5.4238971488006555e+00 -1 1 1
969 323 3 4.2399999999999999e-01 -1.0137513403921588e+01 -3.3292436550930660e+00 -1.4506574884399193e+00 -1 -1 1
346 115 4 -8.4799999999999998e-01 -8.6439269815663682e+00 -6.1254031459023697e+00 -1.8764349594940164e+00 1 2 -1
938 312 3 4.2399999999999999e-01 -1.3128321382102790e+00 -2.2308444801869118e+00 -1.0976731714120866e+00 0 -2 -1
557 185 3 4.2399999999999999e-01 -2.3965391420493098e+00 -8.8196677267619883e-01 -7.5564679838702622e+00 0 2 1
191 63 3 4.2399999999999999e-01 -2.8180727542376545e+00 -6.3607599874801357e+00 -4.7066504745826991e+00 2 -1 2
214 71 4 -8.4799999999999998e-01 -4.8236020791531402e+00 -1.0693282437162466e+01 -2.3468982223038726e+00 3 1 2
1027 342 4 -8.4799999999999998e-01 -6.6283326934516102e+00 -3.8710871578329948e+00 -1.0320095241340546e+01 -2 -1 1
133 44 4 -8.4799999999999998e-01 -4.2566790272780297e+00 -6.5249626576136786e+00 -9.9621963290604931e-01 1 1 -1
983 327 3 4.2399999999999999e-01 -6.9770222413928797e+00 -1.2454278673590800e+00 -1.6832122298860952e-01 1 2 1
982 327 4 -8.4799999999999998e-01 -7.4758422585409114e+00 -1.7843060216626210e+00 -8.4712525703149666e-01 1 2 1
833 277 3 4.2399999999999999e-01 -9.7098611973056350e+00 -4.2776049364445008e+00 -1.0273533605361251e+01 2 -1 0
819 273 3 4.2399999999999999e-01 -5.9804697398575435e+00 -2.0743982627865076e+00 -7.0610755043967783e+00 0 0 1
103 34 4 -8.4799999999999998e-01 -9.9811142504530359e+00 -4.1219491005239890e+00 -4.5825336881261940e+00 -1 1 1
189 63 3 4.2399999999999999e-01 -2.1435267091832841e+00 -6.1046933368235123e+00 -3.2417246810915517e+00 2 -1 2
152 50 3 4.2399999999999999e-01 -1.2731751624958445e+00 -6.0636152987981697e+00 -1.3586366311623337e+00 -1 0 -1
820 273 4 -8.4799999999999998e-01 -5.1838713481770524e+00 -1.7090477803143092e+00 -6.5794776740261041e+00 0 0 1
443 147 3 4.2399999999999999e-01 -8.2236208550175789e+00 -9.4182909890515258e+00 -8.4670115459921043e+00 -1 1 1
353 117 3 4.2399999999999999e-01 -8.5763896876427719e+00 -1.0287088288439492e+01 -3.5691605265609399e+00 0 0 0
10 3 4 -8.4799999999999998e-01 -9.7250480765046348e+00 -9.9893201610724578e+00 -9.2647907931756155e+00 3 0 1
879 293 3 4.2399999999999999e-01 -1.4649634428888199e+00 -5.6299504645052778e+00 -5.8754627355961739e+00 0 1 2
91 30 4 -8.4799999999999998e-01 -3.8547407197655730e+00 -7.2271674600179008e+00 -5.9782241987521765e+00 3 0 0
157 52 4 -8.4799999999999998e-01 -1.9030990647212658e+00 -3.5608272735001627e+00 -9.2026589426472665e+00 0 -1 0
880 293 4 -8.4799999999999998e-01 -1.1977328781132783e+00 -6.0166729933622172e+00 -6.7580841462092964e+00 0 1 2
1026 342 3 4.2399999999999999e-01 -6.9490980941843938e+00 -3.1518778249112946e+00 -1.0936402552662953e+01 -2 -1 1
800 266 3 4.2399999999999999e-01 -8.8803016406408375e-01 -2.1510080748075548e+00 -6.1473708965106528e+00 0 -1 0
1047 349 3 4.2399999999999999e-01 -9.2395867437791370e+00 -2.1669805865900731e+00 -4.1035968634711848e+00 -1 0 0
798 266 3 4.2399999999999999e-01 -2.3690301019575344e+00 -2.8375130043139141e+00 -6.1033331897701055e+00 0 -1 0
751 250 4 -8.4799999999999998e-01 -8.8251229178464481e+00 -6.4427465090051319e+00 -7.6444682487388249e+00 1 0 1
923 307 3 4.2399999999999999e-01 -7.8367796106808481e+00 -4.3612526085836656e+00 -4.4837937247027311e+00 2 2 2
909 303 3 4.2399999999999999e-01 -3.0267640047074984e+00 -2.9131087275533218e+00 -2.8000489599025880e+00 2 0 1
442 147 4 -8.4799999999999998e-01 -7.4996916072575761e+00 -8.8680939456245689e+00 -8.0508437696141790e+00 -1 1 1
883 294 4 -8.4799999999999998e-01 -4.0808988033680880e+00 -5.1972674633339526e+00 -1.0707982022945352e+01 1 1 -1
660 220 3 4.2399999999999999e-01 -1.4215114945494101e+00 -7.7168379836685652e+00 -7.4441842588384830e+00 0 0 0
922 307 4 -8.4799999999999998e-01 -6.8408974261193096e+00 -4.3715793854199436e+00 -4.5737823515018192e+00 2 2 2
345 115 3 4.2399999999999999e-01 -8.7109207033987168e+00 -5.1277666117369094e+00 -1.8616307429521086e+00 1 2 -1
158 52 3 4.2399999999999999e-01 -1.5726051735283875e+00 -3.2617440890668989e+00 -8.3075002841776531e+00 0 -1 0
110 36 3 4.2399999999999999e-01 -5.1718563790364422e+00 -2.4988754403922169e+00 -3.3579264150131145e+00 2 0 1
533 177 3 4.2399999999999999e-01 -7.2181559107883864e+00 -2.2520554971885680e+00 -9.0754017065277210e+00 2 1 2
519 173 3 4.2399999999999999e-01 -9.2223961471188964e+00 -8.8273031760400826e+00 -5.6690787529757358e-01 0 -1 -1
532 177 4 -8.4799999999999998e-01 -7.2232586646055399e+00 -1.3534754566640945e+00 -8.6366371668212576e+00 2 1 2
352 117 4 -8.4799999999999998e-01 -9.3166337299549600e+00 -1.0926281114662210e+01 -3.7776245036473721e+00 0 0 0
521 173 3 4.2399999999999999e-01 -9.4270022555508142e+00 -9.3544890967678480e+00 -2.0988349919153357e+00 0 -1 -1
102 34 3 4.2399999999999999e-01 -1.0629920463963582e+01 -4.7081627982762182e+00 -4.0973621536125711e+00 -1 1 1
97 32 4 -8.4799999999999998e-01 -1.0991006712574537e+01 -2.2416515778854631e+00 -7.9078526659702666e+00 1 -1 0
96 32 3 4.2399999999999999e-01 -1.0376577632190831e+01 -2.9705704465665335e+00 -8.2097468379436229e+00 1 -1 0
302 100 3 4.2399999999999999e-01 -4.1881545502794548e+00 -2.0298341475296215e+00 -1.0473996576743980e+01 1 -1 1
1019 339 3 4.2399999999999999e-01 -5.4065302398417705e+00 -1.0866522475193049e+01 -4.9020286785908418e-01 2 1 0
9 3 3 4.2399999999999999e-01 -1.0605527226114669e+01 -9.5564435056144372e+00 -9.0715023916137270e+00 3 0 1
268 89 4 -8.4799999999999998e-01 -1.1033414324919875e+01 -1.0436306106608109e+01 -5.8593844042515011e+00 0 0 2
1060 353 4 -8.4799999999999998e-01 -1.1104978284258660e+01 -5.5651957063856177e+00 -1.6725328405609829e-01 1 1 1
1044 348 3 4.2399999999999999e-01 -1.1124569827491253e+01 -5.2521244933220581e+00 -7.9576788970146435e+00 1 1 -2
426 142 3 4.2399999999999999e-01 -2.2417821032560514e+00 -4.3358414956155826e+00 1.6821449444123910e+00 0 1 1
622 207 4 -8.4799999999999998e-01 -8.0654170311894919e+00 -7.2072485270466711e+00 1.0991259951454545e+01 0 -1 0
261 87 3 4.2399999999999999e-01 -2.1824549561226689e+00 -1.3132280475415534e+00 5.4453102518626189e+00 0 1 -2
964 321 4 -8.4799999999999998e-01 -1.0081282240418977e+01 -7.1012500709752224e-01 8.7876963014177356e+00 1 -1 -1
573 191 3 4.2399999999999999e-01 -8.7449776364747667e+00 -4.2204264881453115e+00 2.1266284416432111e+00 2 2 0
701 233 3 4.2399999999999999e-01 -9.9369572238790838e-02 -6.8540329394435773e-01 5.0300059313784402e+00 1 0 0
7 2 4 -8.4799999999999998e-01 -8.8214254057542121e+00 -7.3890586752026026e+00 1.2022197659574037e+00 -2 0 0
827 275 3 4.2399999999999999e-01 -5.5334768372679370e+00 -3.2920307727551430e+00 2.5654021661368045e+00 0 -2 -1
286 95 4 -8.4799999999999998e-01 -3.3379721708041190e+00 -3.9364103506271775e-01 9.5087307119539588e+00 -1 0 -2
805 268 4 -8.4799999999999998e-01 -1.0011823775850051e+01 -9.0835378622345146e+00 8.0020413740739400e+00 -1 1 -1
826 275 4 -8.4799999999999998e-01 -5.4606136376795460e+00 -3.3216328669377582e+00 1.5685066461325672e+00 0 -2 -1
35 11 3 4.2399999999999999e-01 -5.1448024451545420e+00 -9.0234229609063235e+00 6.6522566360422886e+00 -2 -1 2
920 306 3 4.2399999999999999e-01 -5.5100269280147840e+00 -6.7940904921453154e+00 4.7771346487314403e+00 0 -1 -1
124 41 4 -8.4799999999999998e-01 -2.1687107902955631e+00 -1.0974470539035366e+01 7.5378812506776782e+00 -1 2 0
891 297 3 4.2399999999999999e-01 -2.2063909940550985e+00 -4.2651131200665038e+00 8.5637723319310552e+00 -1 -1 -1
549 183 3 4.2399999999999999e-01 -1.0510418253650920e+01 -1.0359109548448915e+01 6.4305711566967929e+00 1 -1 -2
317 105 3 4.2399999999999999e-01 -2.1111636812549346e+00 -6.2219369702557099e+00 5.0951393273120331e+00 0 0 -1
1002 334 3 4.2399999999999999e-01 -3.2066425346910519e+00 -1.0891930792320904e+01 1.8909500461102269e+00 0 3 0
33 11 3 4.2399999999999999e-01 -5.2470329357412515e+00 -1.0114175120707287e+01 7.8632056646518578e+00 -2 -1 2
497 165 3 4.2399999999999999e-01 -8.4566217400410935e+00 -7.5036392281354498e+00 6.5539328281484615e+00 1 1 -1
643 214 4 -8.4799999999999998e-01 -2.3289121140396158e+00 -9.2458091833392562e+00 5.3717805242540848e+00 -2 3 0
430 143 4 -8.4799999999999998e-01 -8.6829872996265784e+00 -4.3996176396791560e+00 7.3137591259733128e+00 0 -1 2
474 158 3 4.2399999999999999e-01 -9.7853749096945997e+00 -7.4162590063026510e+00 4.4445777100715027e+00 2 -1 -2
963 321 3 4.2399999999999999e-01 -1.0783695111826333e+01 -1.1809670586030681e+00 9.3214670141256981e+00 1 -1 -1
100 33 4 -8.4799999999999998e-01 -5.1202099782410446e+00 -8.0391983318137150e-01 4.9007054580355991e-01 0 0 1
274 91 4 -8.4799999999999998e-01 -4.0616397036868266e+00 -2.2309379290663855e-01 2.9722846097756559e+00 -1 1 0
794 264 3 4.2399999999999999e-01 -6.4846496638505080e-01 -1.0762085122092167e+01 5.0832309813092635e+00 0 0 0
543 181 3 4.2399999999999999e-01 -6.0707215123479514e+00 -5.3286887248266295e+00 8.6654762396615013e+00 -1 0 -2
614 204 3 4.2399999999999999e-01 -4.8816192726822623e+00 -8.7216084726587564e+00 4.1027059662826346e+00 -1 -1 -2
230 76 3 4.2399999999999999e-01 -6.6292424889351338e+00 -2.5815886762759277e+00 4.0857013287702024e+00 0 0 -1
38 12 3 4.2399999999999999e-01 -3.0498736009182910e+00 -1.0726577308206279e+01 1.0151604736906300e+01 0 1 -1
431 143 3 4.2399999999999999e-01 -8.6929265706847989e+00 -5.1927414625449702e+00 6.7047912409039938e+00 0 -1 2
400 133 4 -8.4799999999999998e-01 -1.3431567092876637e+00 -8.0181796991766525e+00 1.1859187660481378e+00 -1 -3 0
613 204 4 -8.4799999999999998e-01 -5.1037960650760006e+00 -9.1193410058655306e+00 4.9928925842381560e+00 -1 -1 -2
877 292 4 -8.4799999999999998e-01 -4.7962726911161973e+00 -6.2920960317459764e+00 8.1654162210826975e+00 0 -1 2
696 232 3 4.2399999999999999e-01 -8.3798554089487176e+00 -1.3596272308476607e+00 9.8176385997472764e+00 0 1 0
196 65 4 -8.4799999999999998e-01 -9.3975991704144839e+00 -1.3695025486119956e+00 9.2682210594071890e-01 0 1 -1
285 95 3 4.2399999999999999e-01 -3.8403431733497833e+00 -1.2560194254178203e+00 9.5712831621644767e+00 -1 0 -2
1081 360 4 -8.4799999999999998e-01 -3.2911533728077620e+00 -4.3074518961369508e+00 2.0114226533755009e-01 2 0 0
101 33 3 4.2399999999999999e-01 -4.9412899666779717e+00 -3.5007644082921630e-01 1.3629965615022233e+00 0 0 1
919 306 4 -8.4799999999999998e-01 -5.9907244246298408e+00 -6.2035693414543642e+00 5.4253645969903808e+00 0 -1 -1
142 47 4 -8.4799999999999998e-01 -3.3576187640414332e+00 -2.4612326556309068e+00 4.5291026275222794e+00 0 0 1
303 101 3 4.2399999999999999e-01 -8.7458566086724083e+00 -2.3334064977404889e+00 3.4686707311276628e+00 0 1 0
143 47 3 4.2399999999999999e-01 -2.7913392899230836e+00 -3.1518151066509699e+00 4.0792033380697763e+00 0 0 1
195 65 3 4.2399999999999999e-01 -9.5924097678666680e+00 -2.1600854419301232e+00 1.5073518729972353e+00 0 1 -1
849 283 3 4.2399999999999999e-01 -5.0070725757720869e+00 -7.1885408253472338e+00 2.2701674236233647e+00 0 -2 -3
1072 357 4 -8.4799999999999998e-01 -7.8087073543591989e+00 -5.0393269970109618e+00 8.4072124029337303e-01 -1 0 0
918 306 3 4.2399999999999999e-01 -5.3901627195485613e+00 -5.9986657014170612e+00 6.1982335103672668e+00 0 -1 -1
50 16 3 4.2399999999999999e-01 -1.0827694773149421e+01 -3.4997880523573928e+00 1.0176150251373688e+01 -2 -1 0
804 268 3 4.2399999999999999e-01 -9.0514680996781607e+00 -8.8156695280294564e+00 7.9249075918037164e+00 -1 1 -1
287 95 3 4.2399999999999999e-01 -2.4541727416922647e+00 -5.5387464352656046e-01 9.0691744217622983e+00 -1 0 -2
295 98 4 -8.4799999999999998e-01 -1.0788039803919714e+01 -1.0755171960397581e+01 1.0068463708757101e+00 0 -1 1
334 111 4 -8.4799999999999998e-01 -1.7395391932551654e+00 -6.3562792596245368e+00 6.6689342115916901e+00 1 1 1
34 11 4 -8.4799999999999998e-01 -5.1521654709215650e+00 -9.1428879154330325e+00 7.6450606676882771e+00 -2 -1 2
878 292 3 4.2399999999999999e-01 -4.8521010551717980e+00 -7.2902661989108299e+00 8.1424743085507600e+00 0 -1 2
716 238 3 4.2399999999999999e-01 -9.2134901984931616e+00 -1.0574864108501909e+01 8.3439746984372185e+00 -1 1 -1
125 41 3 4.2399999999999999e-01 -2.6695486456265787e+00 -1.0360124056012193e+01 8.1475744339730980e+00 -1 2 0
627 209 3 4.2399999999999999e-01 -1.0810700059262924e+01 -5.7904749837729934e+00 9.9438491247244549e+00 1 2 1
399 133 3 4.2399999999999999e-01 -1.9887037791988096e+00 -8.7789937867197985e+00 1.2523781468209378e+00 -1 -3 0
366 122 3 4.2399999999999999e-01 -9.3326866226107139e+00 -2.8813661545969076e+00 6.6016970699645618e+00 -1 -2 1
315 105 3 4.2399999999999999e-01 -1.2756201862640069e+00 -6.9838325369728436e+00 3.9170174121868939e+00 0 0 -1
1059 353 3 4.2399999999999999e-01 -1.0837855765975243e+01 -6.4803704052016311e+00 1.3455302012638981e-01 1 1 1
335 111 3 4.2399999999999999e-01 -1.9880161680312138e+00 -6.1222741495285486e+00 7.6088741134547959e+00 1 1 1
368 122 3 4.2399999999999999e-01 -1.0116046607501154e+01 -1.6431016122061148e+00 7.3225557532967080e+00 -1 -2 1
655 218 4 -8.4799999999999998e-01 -7.6762822908329564e+00 -7.8356492599916514e+00 8.3129938662385996e+00 -1 0 -2
429 143 3 4.2399999999999999e-01 -7.8615023772473442e+00 -4.4269792953581346e+00 7.8833204160329728e+00 0 -1 2
8 2 3 4.2399999999999999e-01 -9.2990677729180824e+00 -7.1266946007677525e+00 2.0406760702044355e+00 -2 0 0
48 16 3 4.2399999999999999e-01 -9.3447250368493719e+00 -4.0285597292502491e+00 9.7428016821110432e+00 -2 -1 0
496 165 4 -8.4799999999999998e-01 -8.5342502300484213e+00 -7.0949766999758035e+00 5.6445623348574578e+00 1 1 -1
401 133 3 4.2399999999999999e-01 -9.8145404331402197e-01 -7.8076536844462661e+00 2.0941235968089043e+00 -1 -3 0
654 218 3 4.2399999999999999e-01 -6.7233527543941980e+00 -8.0966894051066678e+00 8.1588187954699833e+00 -1 0 -2
612 204 3 4.2399999999999999e-01 -5.8439490099754154e+00 -9.7832139977074597e+00 4.8859709957842838e+00 -1 -1 -2
866 288 3 4.2399999999999999e-01 -5.9266776434040960e+00 -8.6945875486564468e+00 4.9232337138045423e-01 -1 -1 1
304 101 4 -8.4799999999999998e-01 -8.2808615500185034e+00 -1.9692988930152158e+00 4.2756349150719792e+00 0 1 0
296 98 3 4.2399999999999999e-01 -1.0958853440810852e+01 -1.0130998894690038e+01 2.4447017395530146e-01 0 -1 1
6 2 3 4.2399999999999999e-01 -8.3898766543499548e+00 -6.5825305205667188e+00 7.9816013695930721e-01 -2 0 0
262 87 4 -8.4799999999999998e-01 -1.6981962574771021e+00 -5.4123960126947779e-01 5.8570303962195709e+00 0 1 -2
476 158 3 4.2399999999999999e-01 -1.0575852072644818e+01 -6.2086911750661988e+00 3.6806959444181029e+00 2 -1 -2
294 98 3 4.2399999999999999e-01 -1.1083912966883469e+01 -1.0327120637782295e+01 1.8607888518215070e+00 0 -1 1
544 181 4 -8.4799999999999998e-01 -6.6815205223933241e+00 -4.6662644481511455e+00 9.0991865531278506e+00 -1 0 -2
228 76 3 4.2399999999999999e-01 -6.0509486848120648e+00 -3.8543293793389681e+00 4.9296777915263625e+00 0 0 -1
893 297 3 4.2399999999999999e-01 -2.0743683759624751e+00 -5.2806517293610966e+00 9.8357162294802372e+00 -1 -1 -1
850 283 4 -8.4799999999999998e-01 -4.7942170897156382e+00 -7.1582408953338126e+00 3.2467741755455748e+00 0 -2 -3
876 292 3 4.2399999999999999e-01 -3.8636300976367677e+00 -6.0156692050528999e+00 8.3972642428226045e+00 0 -1 2
289 96 4 -8.4799999999999998e-01 -6.9504357750897166e+00 -1.1058718353920458e+01 4.7430793044824391e+00 2 1 -1
885 295 3 4.2399999999999999e-01 -3.7792778931677340e-01 -6.7172664816039926e+00 1.1029565744197583e+01 0 0 1
333 111 3 4.2399999999999999e-01 -7.4398229298087237e-01 -6.3473094985013185e+00 6.5752744416380615e+00 1 1 1
367 122 4 -8.4799999999999998e-01 -9.9004429267327385e+00 -2.0730670173878814e+00 6.4458398526719556e+00 -1 -2 1
475 158 4 -8.4799999999999998e-01 -1.0259933915575944e+01 -7.1543832541704422e+00 3.6042194575007578e+00 2 -1 -2
545 181 3 4.2399999999999999e-01 -6.9216299763378313e+00 -4.9848638007218549e+00 1.0016153194702117e+01 -1 0 -2
49 16 4 -8.4799999999999998e-01 -1.0133416196300631e+01 -4.2022926649348840e+00 1.0332521599848068e+01 -2 -1 0
495 165 3 4.2399999999999999e-01 -7.6785526879132426e+00 -6.6322500196808276e+00 5.4129339861970216e+00 1 1 -1
825 275 3 4.2399999999999999e-01 -5.4085701213295314e+00 -2.3894558520195410e+00 1.2102838195061292e+00 0 -2 -1
656 218 3 4.2399999999999999e-01 -7.8170738807892519e+00 -7.6467538967194653e+00 9.2848393004296703e+00 -1 0 -2
1018 339 4 -8.4799999999999998e-01 -5.5229004715822052e+00 -1.0251726921984915e+01 2.8984238865102796e-01 2 1 0
229 76 4 -8.4799999999999998e-01 -5.8046966532705664e+00 -3.0902797987375550e+00 4.3333774578265363e+00 0 0 -1
865 288 4 -8.4799999999999998e-01 -6.0672459148871027e+00 -7.7209131207649513e+00 6.7172417590226630e-01 -1 -1 1
642 214 3 4.2399999999999999e-01 -3.2980604657505168e+00 -9.0739152335605997e+00 5.1951715708402944e+00 -2 3 0
574 191 4 -8.4799999999999998e-01 -9.4161086238174754e+00 -3.5442210611440972e+00 2.4304635924733358e+00 2 2 0
197 65 3 4.2399999999999999e-01 -8.7906128081232193e+00 -1.6448771469941708e+00 1.8135340237352437e-01 0 1 -1
737 245 3 4.2399999999999999e-01 -3.9880291759652575e+00 -3.8313259235999553e+00 1.0219499593822544e+01 0 0 0
735 245 3 4.2399999999999999e-01 -5.1403845702005651e+00 -3.1449320541285388e+00 9.2880868971790846e+00 0 0 0
316 105 4 -8.4799999999999998e-01 -2.1135789034675128e+00 -6.4810994906386581e+00 4.1293158629232867e+00 0 0 -1
1004 334 3 4.2399999999999999e-01 -3.7750154238711664e+00 -9.6569050601000246e+00 9.8637667823332720e-01 0 3 0
550 183 4 -8.4799999999999998e-01 -1.0826123484916399e+01 -1.1074807323790587e+01 5.8075992559439058e+00 1 -1 -2
851 283 3 4.2399999999999999e-01 -3.9014208186388810e+00 -6.7279868485122156e+00 3.3801288844512118e+00 0 -2 -3
305 101 3 4.2399999999999999e-01 -8.9317485457693788e+00 -1.8976671853906648e+00 5.0314134281888414e+00 0 1 0
428 142 3 4.2399999999999999e-01 -2.1167287073835883e+00 -4.9610138493545675e+00 3.1855112678570645e+00 0 1 1
774 258 3 4.2399999999999999e-01 -1.4989399951248252e+00 -4.2769122144474281e-01 7.5235727307668263e+00 0 0 0
141 47 3 4.2399999999999999e-01 -4.3177984225044774e+00 -2.7370503478978758e+00 4.4847669356163369e+00 0 0 1
1065 355 3 4.2399999999999999e-01 -8.5067995381996546e+00 -1.0957060085984340e+01 1.9302899500390200e+00 0 1 1
806 268 3 4.2399999999999999e-01 -1.0479792034888447e+01 -8.4676026145601675e+00 8.6357728391917092e+00 -1 1 -1
864 288 3 4.2399999999999999e-01 -7.0138510046316478e+00 -7.5674931209318528e+00 9.5525035637909461e-01 -1 -1 1
427 142 4 -8.4799999999999998e-01 -1.9368715515984274e+00 -4.1577408744847837e+00 2.6177173624648393e+00 0 1 1
611 203 3 4.2399999999999999e-01 -2.9368980841240901e+00 -8.3800368912653909e+00 1.1101842356513117e+01 1 1 1
1003 334 4 -8.4799999999999998e-01 -2.9762935473943593e+00 -1.0014437273660603e+01 1.4703190626354168e+00 0 3 0
644 214 3 4.2399999999999999e-01 -1.9044324710880343e+00 -8.4170231716277648e+00 5.7363583756211831e+00 -2 3 0
892 297 4 -8.4799999999999998e-01 -2.4872192651857965e+00 -5.1504647187237662e+00 8.9342774279587545e+00 -1 -1 -1
736 245 4 -8.4799999999999998e-01 -4.4092378949891877e+00 -2.9664236154724470e+00 9.9465283845005033e+00 0 0 0
1071 357 3 4.2399999999999999e-01 -6.8488000846804837e+00 -4.7916077879206620e+00 9.7187008989648405e-01 -1 0 0
123 41 3 4.2399999999999999e-01 -2.2310199639651955e+00 -1.0636011861150376e+01 6.5989726209049486e+00 -1 2 0
273 91 3 4.2399999999999999e-01 -3.7956996925599196e+00 -1.0631136053117221e+00 3.4451784087569042e+00 -1 1 0
697 232 4 -8.4799999999999998e-01 -7.7076881486032374e+00 -1.7746798312836987e+00 1.0430752778745553e+01 0 1 0
36 12 3 4.2399999999999999e-01 -1.5169236117278526e+00 -1.0164235645412495e+01 1.0172231312589883e+01 0 1 -1
775 258 4 -8.4799999999999998e-01 -9.6377002100966891e-01 -5.6345139968934532e-01 8.3573282307716212e+00 0 0 0
37 12 4 -8.4799999999999998e-01 -2.4694260005653721e+00 -9.9314706519548270e+00 9.9759005138519115e+00 0 1 -1
1082 360 3 4.2399999999999999e-01 -4.0963959275773814e+00 -3.9482181472565001e+00 6.7286428110626240e-01 2 0 0
698 232 3 4.2399999999999999e-01 -7.0571034493537077e+00 -1.0779146754228357e+00 1.0732818854705215e+01 0 1 0
198 66 3 4.2399999999999999e-01 -1.1005184725054576e+01 -6.2756746019800582e+00 6.3683640031154205e+00 0 1 0