LAMMPS (11 Nov 2013)
# created by fftool

print "Methane in TIP4P water"
Methane in TIP4P water

units real
boundary p p p

atom_style full
bond_style harmonic
angle_style harmonic
special_bonds lj/coul 0.0 0.0 0.5

read_data data.lmp
  1 = max bonds/atom
  6 = max angles/atom
  orthogonal box = (-13.4438 -13.4438 -13.4438) to (13.4438 13.4438 13.4438)
  2 by 2 by 2 MPI processor grid
  1085 atoms
  724 bonds
  366 angles
  4 = max # of 1-2 neighbors
  3 = max # of 1-3 neighbors
  3 = max # of 1-4 neighbors
  4 = max # of special neighbors

pair_style hybrid   lj/cut/coul/long 10.0 10.0   lj/cut/tip4p/long 3 4 2 2 0.125 10.0 10.0   lj/cut/tip4p/long/soft 3 4 2 2 0.125 1 0.5 10.0 10.0 10.0
pair_modify tail no
kspace_style pppm 1.0e-4

pair_coeff    1    1  lj/cut/coul/long    0.0660   3.5000  # C4H C4H
pair_coeff    1    2  lj/cut/coul/long    0.0445   2.9580  # C4H H
pair_coeff    2    2  lj/cut/coul/long    0.0300   2.5000  # H H
pair_coeff    3    3  lj/cut/tip4p/long   0.1628   3.1644  # Ow Ow
pair_coeff    3    4  lj/cut/tip4p/long   0.0000   0.0000  # Ow Hw
pair_coeff    4    4  lj/cut/tip4p/long   0.0000   0.0000  # Hw Hw

pair_coeff    1    3  lj/cut/tip4p/long/soft   0.1036   3.3279  1.0  # C4H Ow
pair_coeff    1    4  lj/cut/tip4p/long/soft   0.0000   0.0000  1.0  # C4H Hw
pair_coeff    2    3  lj/cut/tip4p/long/soft   0.0699   2.8126  1.0  # H Ow
pair_coeff    2    4  lj/cut/tip4p/long/soft   0.0000   0.0000  1.0  # H Hw

variable nsteps equal 2500000
variable nprint equal ${nsteps}/500
variable nprint equal 2500000/500
variable ndump equal ${nsteps}/100
variable ndump equal 2500000/100

variable temp equal 300.0
variable press equal 1.0

fix fSHAKE all shake 0.0001 20 ${nprint} b 2 a 2
fix fSHAKE all shake 0.0001 20 5000 b 2 a 2
  0 = # of size 2 clusters
  0 = # of size 3 clusters
  0 = # of size 4 clusters
  360 = # of frozen angles

neighbor 2.0 bin

timestep 2.0

# velocity all create ${temp} 12345

thermo_style multi
thermo ${nprint}
thermo 5000

fix fNPT all npt temp ${temp} ${temp} 100 iso ${press} ${press} 1000
fix fNPT all npt temp 300 ${temp} 100 iso ${press} ${press} 1000
fix fNPT all npt temp 300 300 100 iso ${press} ${press} 1000
fix fNPT all npt temp 300 300 100 iso 1 ${press} 1000
fix fNPT all npt temp 300 300 100 iso 1 1 1000

run 250000
PPPM initialization ...
  G vector (1/distance) = 0.270215
  grid = 15 15 15
  stencil order = 5
  estimated absolute RMS force accuracy = 0.0258727
  estimated relative force accuracy = 7.7915e-05
  using double precision FFTs
  3d grid and FFT values/proc = 2744 512
SHAKE stats (type/ave/delta) on step 0
  2 0.9572 1.71599e-05
  2 104.52 0.00161974
Memory usage per processor = 7.10488 Mbytes
---------------- Step        0 ----- CPU =      0.0000 (sec) ----------------
TotEng   =        20.8305 KinEng   =         0.0000 Temp     =         0.0000 
PotEng   =        20.8305 E_bond   =         0.0000 E_angle  =         0.1685 
E_dihed  =         0.0000 E_impro  =         0.0000 E_vdwl   =      -205.3630 
E_coul   =     29920.6294 E_long   =    -29694.6044 Press    =       550.1482 
Volume   =     19438.0383 
SHAKE stats (type/ave/delta) on step 5000
  2 0.957039 4.8429e-06
  2 104.52 0.000402243
---------------- Step     5000 ----- CPU =     25.4829 (sec) ----------------
TotEng   =     -3305.8622 KinEng   =       658.0443 Temp     =       304.9174 
PotEng   =     -3963.9065 E_bond   =         0.1177 E_angle  =         0.3431 
E_dihed  =         0.0000 E_impro  =         0.0000 E_vdwl   =       741.4038 
E_coul   =     25305.0763 E_long   =    -30010.8474 Press    =      -343.5007 
Volume   =     11208.6499 
SHAKE stats (type/ave/delta) on step 10000
  2 0.957019 8.05767e-06
  2 104.52 0.000791076
---------------- Step    10000 ----- CPU =     53.1461 (sec) ----------------
TotEng   =     -3304.5272 KinEng   =       663.6666 Temp     =       307.5226 
PotEng   =     -3968.1938 E_bond   =         1.4400 E_angle  =         1.7887 
E_dihed  =         0.0000 E_impro  =         0.0000 E_vdwl   =       795.5150 
E_coul   =     25241.3822 E_long   =    -30008.3197 Press    =       775.9708 
Volume   =     11181.6706 
SHAKE stats (type/ave/delta) on step 15000
  2 0.957059 1.04125e-05
  2 104.52 0.000794962
---------------- Step    15000 ----- CPU =     80.6952 (sec) ----------------
TotEng   =     -3296.4216 KinEng   =       636.9881 Temp     =       295.1606 
PotEng   =     -3933.4097 E_bond   =         0.1412 E_angle  =         2.6898 
E_dihed  =         0.0000 E_impro  =         0.0000 E_vdwl   =       737.5857 
E_coul   =     25339.3066 E_long   =    -30013.1330 Press    =       185.4810 
Volume   =     10914.7818 
SHAKE stats (type/ave/delta) on step 20000
  2 0.957021 8.77535e-06
  2 104.52 0.000698092
---------------- Step    20000 ----- CPU =    108.1125 (sec) ----------------
TotEng   =     -3260.7316 KinEng   =       660.9486 Temp     =       306.2632 
PotEng   =     -3921.6802 E_bond   =         0.2558 E_angle  =         0.3873 
E_dihed  =         0.0000 E_impro  =         0.0000 E_vdwl   =       771.1838 
E_coul   =     25316.1282 E_long   =    -30009.6353 Press    =      1173.9119 
Volume   =     10750.3938 
SHAKE stats (type/ave/delta) on step 25000
  2 0.957014 6.69403e-06
  2 104.52 0.000410734
---------------- Step    25000 ----- CPU =    136.1687 (sec) ----------------
TotEng   =     -3320.1965 KinEng   =       638.3298 Temp     =       295.7824 
PotEng   =     -3958.5263 E_bond   =         0.1456 E_angle  =         1.1963 
E_dihed  =         0.0000 E_impro  =         0.0000 E_vdwl   =       750.5392 
E_coul   =     25296.3367 E_long   =    -30006.7441 Press    =       244.1916 
Volume   =     10898.9141 
SHAKE stats (type/ave/delta) on step 30000
  2 0.956972 6.51773e-06
  2 104.52 0.000435434
---------------- Step    30000 ----- CPU =    164.3369 (sec) ----------------
TotEng   =     -3342.1600 KinEng   =       632.7269 Temp     =       293.1862 
PotEng   =     -3974.8870 E_bond   =         0.9429 E_angle  =         0.7145 
E_dihed  =         0.0000 E_impro  =         0.0000 E_vdwl   =       770.6876 
E_coul   =     25264.9544 E_long   =    -30012.1864 Press    =       560.8624 
Volume   =     10809.6115 
SHAKE stats (type/ave/delta) on step 35000
  2 0.956976 6.44876e-06
  2 104.52 0.000425591
---------------- Step    35000 ----- CPU =    192.2543 (sec) ----------------
TotEng   =     -3266.1826 KinEng   =       658.2699 Temp     =       305.0220 
PotEng   =     -3924.4525 E_bond   =         0.6308 E_angle  =         0.7720 
E_dihed  =         0.0000 E_impro  =         0.0000 E_vdwl   =       718.4545 
E_coul   =     25366.5905 E_long   =    -30010.9004 Press    =       -44.7431 
Volume   =     10860.0871 
SHAKE stats (type/ave/delta) on step 40000
  2 0.956965 6.75058e-06
  2 104.52 0.000407965
---------------- Step    40000 ----- CPU =    219.7656 (sec) ----------------
TotEng   =     -3295.9665 KinEng   =       633.7583 Temp     =       293.6641 
PotEng   =     -3929.7248 E_bond   =         0.4866 E_angle  =         0.3678 
E_dihed  =         0.0000 E_impro  =         0.0000 E_vdwl   =       742.7573 
E_coul   =     25334.2705 E_long   =    -30007.6070 Press    =       215.0272 
Volume   =     10952.8670 
SHAKE stats (type/ave/delta) on step 45000
  2 0.956979 1.14231e-05
  2 104.52 0.00100499
---------------- Step    45000 ----- CPU =    247.1202 (sec) ----------------
TotEng   =     -3262.3445 KinEng   =       652.3898 Temp     =       302.2973 
PotEng   =     -3914.7343 E_bond   =         0.5974 E_angle  =         1.3433 
E_dihed  =         0.0000 E_impro  =         0.0000 E_vdwl   =       763.0194 
E_coul   =     25334.9332 E_long   =    -30014.6276 Press    =       897.6430 
Volume   =     10921.5099 
SHAKE stats (type/ave/delta) on step 50000
  2 0.957044 8.55856e-06
  2 104.52 0.000699281
---------------- Step    50000 ----- CPU =    275.2908 (sec) ----------------
TotEng   =     -3313.3841 KinEng   =       604.9354 Temp     =       280.3084 
PotEng   =     -3918.3195 E_bond   =         1.4632 E_angle  =         0.9322 
E_dihed  =         0.0000 E_impro  =         0.0000 E_vdwl   =       782.3054 
E_coul   =     25310.2673 E_long   =    -30013.2875 Press    =      1190.9628 
Volume   =     10920.7303 
SHAKE stats (type/ave/delta) on step 55000
  2 0.956993 6.22495e-06
  2 104.52 0.000446263
---------------- Step    55000 ----- CPU =    303.0400 (sec) ----------------
TotEng   =     -3319.8582 KinEng   =       647.8097 Temp     =       300.1750 
PotEng   =     -3967.6678 E_bond   =         1.1583 E_angle  =         1.4414 
E_dihed  =         0.0000 E_impro  =         0.0000 E_vdwl   =       746.6340 
E_coul   =     25295.9099 E_long   =    -30012.8114 Press    =      -789.9630 
Volume   =     11409.2247 
SHAKE stats (type/ave/delta) on step 60000
  2 0.956973 5.73818e-06
  2 104.52 0.000450409
---------------- Step    60000 ----- CPU =    329.9839 (sec) ----------------
TotEng   =     -3266.7360 KinEng   =       654.8260 Temp     =       303.4262 
PotEng   =     -3921.5620 E_bond   =         0.1478 E_angle  =         2.2870 
E_dihed  =         0.0000 E_impro  =         0.0000 E_vdwl   =       772.3274 
E_coul   =     25312.8901 E_long   =    -30009.2144 Press    =       942.5031 
Volume   =     10927.5411 
SHAKE stats (type/ave/delta) on step 65000
  2 0.956995 1.06255e-05
  2 104.52 0.0007523
---------------- Step    65000 ----- CPU =    357.2621 (sec) ----------------
TotEng   =     -3281.6174 KinEng   =       664.8567 Temp     =       308.0741 
PotEng   =     -3946.4741 E_bond   =         0.7126 E_angle  =         4.2788 
E_dihed  =         0.0000 E_impro  =         0.0000 E_vdwl   =       739.0109 
E_coul   =     25320.1585 E_long   =    -30010.6349 Press    =      -106.4140 
Volume   =     11043.6671 
SHAKE stats (type/ave/delta) on step 70000
  2 0.957001 5.22927e-06
  2 104.52 0.000538147
---------------- Step    70000 ----- CPU =    384.5984 (sec) ----------------
TotEng   =     -3292.5802 KinEng   =       647.5207 Temp     =       300.0411 
PotEng   =     -3940.1009 E_bond   =         1.0146 E_angle  =         1.9889 
E_dihed  =         0.0000 E_impro  =         0.0000 E_vdwl   =       688.3726 
E_coul   =     25378.9473 E_long   =    -30010.4242 Press    =     -1033.1670 
Volume   =     11000.0243 
SHAKE stats (type/ave/delta) on step 75000
  2 0.957071 4.50994e-06
  2 104.52 0.000481208
---------------- Step    75000 ----- CPU =    410.9057 (sec) ----------------
TotEng   =     -3271.7043 KinEng   =       661.6499 Temp     =       306.5882 
PotEng   =     -3933.3542 E_bond   =         2.2676 E_angle  =         3.9671 
E_dihed  =         0.0000 E_impro  =         0.0000 E_vdwl   =       731.4643 
E_coul   =     25341.8103 E_long   =    -30012.8636 Press    =        48.5471 
Volume   =     11028.4077 
SHAKE stats (type/ave/delta) on step 80000
  2 0.956997 5.22391e-06
  2 104.52 0.000394371
---------------- Step    80000 ----- CPU =    437.1936 (sec) ----------------
TotEng   =     -3280.2180 KinEng   =       682.7904 Temp     =       316.3840 
PotEng   =     -3963.0084 E_bond   =         1.9210 E_angle  =         2.3146 
E_dihed  =         0.0000 E_impro  =         0.0000 E_vdwl   =       747.9432 
E_coul   =     25295.8511 E_long   =    -30011.0383 Press    =       345.3335 
Volume   =     10912.4957 
SHAKE stats (type/ave/delta) on step 85000
  2 0.956998 1.0312e-05
  2 104.52 0.000874904
---------------- Step    85000 ----- CPU =    463.8389 (sec) ----------------
TotEng   =     -3273.8028 KinEng   =       657.1594 Temp     =       304.5074 
PotEng   =     -3930.9623 E_bond   =         2.9659 E_angle  =         0.4084 
E_dihed  =         0.0000 E_impro  =         0.0000 E_vdwl   =       741.7490 
E_coul   =     25338.6226 E_long   =    -30014.7082 Press    =       611.3007 
Volume   =     10648.1515 
SHAKE stats (type/ave/delta) on step 90000
  2 0.957075 8.08897e-06
  2 104.52 0.000817988
---------------- Step    90000 ----- CPU =    490.3462 (sec) ----------------
TotEng   =     -3352.6237 KinEng   =       643.7649 Temp     =       298.3008 
PotEng   =     -3996.3886 E_bond   =         2.1911 E_angle  =         0.9809 
E_dihed  =         0.0000 E_impro  =         0.0000 E_vdwl   =       835.7251 
E_coul   =     25177.4925 E_long   =    -30012.7782 Press    =      1162.0879 
Volume   =     11115.1962 
SHAKE stats (type/ave/delta) on step 95000
  2 0.95699 5.14008e-06
  2 104.52 0.000385384
---------------- Step    95000 ----- CPU =    516.8242 (sec) ----------------
TotEng   =     -3353.1685 KinEng   =       605.4340 Temp     =       280.5395 
PotEng   =     -3958.6026 E_bond   =         1.3961 E_angle  =         2.5490 
E_dihed  =         0.0000 E_impro  =         0.0000 E_vdwl   =       766.6550 
E_coul   =     25282.5228 E_long   =    -30011.7254 Press    =       341.7714 
Volume   =     10916.0801 
SHAKE stats (type/ave/delta) on step 100000
  2 0.957048 8.17632e-06
  2 104.52 0.000597167
---------------- Step   100000 ----- CPU =    544.0018 (sec) ----------------
TotEng   =     -3346.6201 KinEng   =       637.2480 Temp     =       295.2811 
PotEng   =     -3983.8681 E_bond   =         1.5838 E_angle  =         0.7494 
E_dihed  =         0.0000 E_impro  =         0.0000 E_vdwl   =       784.6638 
E_coul   =     25243.0385 E_long   =    -30013.9037 Press    =       880.0370 
Volume   =     10728.6182 
SHAKE stats (type/ave/delta) on step 105000
  2 0.956925 6.4796e-06
  2 104.52 0.00054006
---------------- Step   105000 ----- CPU =    571.7082 (sec) ----------------
TotEng   =     -3283.3189 KinEng   =       664.8399 Temp     =       308.0663 
PotEng   =     -3948.1589 E_bond   =         2.3776 E_angle  =         2.9516 
E_dihed  =         0.0000 E_impro  =         0.0000 E_vdwl   =       700.7844 
E_coul   =     25358.7855 E_long   =    -30013.0580 Press    =      -754.1576 
Volume   =     10931.9959 
SHAKE stats (type/ave/delta) on step 110000
  2 0.957096 5.56447e-06
  2 104.52 0.000428229
---------------- Step   110000 ----- CPU =    599.2807 (sec) ----------------
TotEng   =     -3325.0966 KinEng   =       633.0452 Temp     =       293.3336 
PotEng   =     -3958.1418 E_bond   =         2.1260 E_angle  =         1.5634 
E_dihed  =         0.0000 E_impro  =         0.0000 E_vdwl   =       780.9900 
E_coul   =     25268.4349 E_long   =    -30011.2562 Press    =       601.2207 
Volume   =     10893.0363 
SHAKE stats (type/ave/delta) on step 115000
  2 0.957051 6.79162e-06
  2 104.52 0.000593415
---------------- Step   115000 ----- CPU =    627.3345 (sec) ----------------
TotEng   =     -3246.8097 KinEng   =       668.4884 Temp     =       309.7569 
PotEng   =     -3915.2981 E_bond   =         1.0044 E_angle  =         2.2711 
E_dihed  =         0.0000 E_impro  =         0.0000 E_vdwl   =       715.8184 
E_coul   =     25373.4966 E_long   =    -30007.8886 Press    =      -326.8358 
Volume   =     11045.3826 
SHAKE stats (type/ave/delta) on step 120000
  2 0.957045 5.44199e-06
  2 104.52 0.00046109
---------------- Step   120000 ----- CPU =    655.5448 (sec) ----------------
TotEng   =     -3310.0172 KinEng   =       650.0285 Temp     =       301.2032 
PotEng   =     -3960.0457 E_bond   =         1.9375 E_angle  =         1.0455 
E_dihed  =         0.0000 E_impro  =         0.0000 E_vdwl   =       714.9404 
E_coul   =     25335.9814 E_long   =    -30013.9506 Press    =      -325.0549 
Volume   =     10840.8292 
SHAKE stats (type/ave/delta) on step 125000
  2 0.956973 6.71573e-06
  2 104.52 0.000448192
---------------- Step   125000 ----- CPU =    683.4392 (sec) ----------------
TotEng   =     -3316.2477 KinEng   =       613.6221 Temp     =       284.3335 
PotEng   =     -3929.8697 E_bond   =         0.6575 E_angle  =         0.8534 
E_dihed  =         0.0000 E_impro  =         0.0000 E_vdwl   =       733.1489 
E_coul   =     25345.6720 E_long   =    -30010.2016 Press    =      -723.5749 
Volume   =     11259.5105 
SHAKE stats (type/ave/delta) on step 130000
  2 0.957031 8.37357e-06
  2 104.52 0.00105279
---------------- Step   130000 ----- CPU =    710.9342 (sec) ----------------
TotEng   =     -3324.7346 KinEng   =       616.4261 Temp     =       285.6329 
PotEng   =     -3941.1607 E_bond   =         0.0687 E_angle  =         0.8251 
E_dihed  =         0.0000 E_impro  =         0.0000 E_vdwl   =       707.4273 
E_coul   =     25362.0989 E_long   =    -30011.5808 Press    =     -1045.0223 
Volume   =     11266.9315 
SHAKE stats (type/ave/delta) on step 135000
  2 0.956985 6.34676e-06
  2 104.52 0.000606348
---------------- Step   135000 ----- CPU =    739.7275 (sec) ----------------
TotEng   =     -3311.8185 KinEng   =       667.8516 Temp     =       309.4619 
PotEng   =     -3979.6701 E_bond   =         1.9631 E_angle  =         1.7453 
E_dihed  =         0.0000 E_impro  =         0.0000 E_vdwl   =       756.1411 
E_coul   =     25270.4323 E_long   =    -30009.9520 Press    =       400.0218 
Volume   =     10655.4608 
SHAKE stats (type/ave/delta) on step 140000
  2 0.956908 4.38943e-06
  2 104.52 0.000460845
---------------- Step   140000 ----- CPU =    767.4880 (sec) ----------------
TotEng   =     -3291.3718 KinEng   =       669.9651 Temp     =       310.4412 
PotEng   =     -3961.3369 E_bond   =         1.1938 E_angle  =         1.6574 
E_dihed  =         0.0000 E_impro  =         0.0000 E_vdwl   =       680.2659 
E_coul   =     25369.2744 E_long   =    -30013.7284 Press    =      -930.3200 
Volume   =     10774.9747 
SHAKE stats (type/ave/delta) on step 145000
  2 0.956942 1.24599e-05
  2 104.52 0.000706233
---------------- Step   145000 ----- CPU =    795.1877 (sec) ----------------
TotEng   =     -3369.1258 KinEng   =       637.4558 Temp     =       295.3774 
PotEng   =     -4006.5816 E_bond   =         1.2206 E_angle  =         0.6885 
E_dihed  =         0.0000 E_impro  =         0.0000 E_vdwl   =       790.1260 
E_coul   =     25209.4152 E_long   =    -30008.0319 Press    =       546.7394 
Volume   =     10941.6677 
SHAKE stats (type/ave/delta) on step 150000
  2 0.956989 5.1324e-06
  2 104.52 0.000511812
---------------- Step   150000 ----- CPU =    823.6436 (sec) ----------------
TotEng   =     -3349.8963 KinEng   =       622.3232 Temp     =       288.3654 
PotEng   =     -3972.2195 E_bond   =         1.5645 E_angle  =         0.5426 
E_dihed  =         0.0000 E_impro  =         0.0000 E_vdwl   =       762.4096 
E_coul   =     25272.5780 E_long   =    -30009.3142 Press    =       398.5539 
Volume   =     10753.6162 
SHAKE stats (type/ave/delta) on step 155000
  2 0.956967 5.47363e-06
  2 104.52 0.000425789
---------------- Step   155000 ----- CPU =    851.8089 (sec) ----------------
TotEng   =     -3305.1754 KinEng   =       665.2482 Temp     =       308.2555 
PotEng   =     -3970.4237 E_bond   =         1.6165 E_angle  =         1.2078 
E_dihed  =         0.0000 E_impro  =         0.0000 E_vdwl   =       802.5765 
E_coul   =     25236.2700 E_long   =    -30012.0944 Press    =       972.9917 
Volume   =     10966.1082 
SHAKE stats (type/ave/delta) on step 160000
  2 0.956975 1.52881e-05
  2 104.52 0.00165369
---------------- Step   160000 ----- CPU =    878.7490 (sec) ----------------
TotEng   =     -3256.3238 KinEng   =       674.1161 Temp     =       312.3646 
PotEng   =     -3930.4398 E_bond   =         1.5658 E_angle  =         2.7138 
E_dihed  =         0.0000 E_impro  =         0.0000 E_vdwl   =       754.8521 
E_coul   =     25323.3371 E_long   =    -30012.9087 Press    =       594.3815 
Volume   =     10877.3146 
SHAKE stats (type/ave/delta) on step 165000
  2 0.957049 1.09399e-05
  2 104.52 0.000885151
---------------- Step   165000 ----- CPU =    906.0672 (sec) ----------------
TotEng   =     -3290.7808 KinEng   =       678.4887 Temp     =       314.3908 
PotEng   =     -3969.2695 E_bond   =         1.6632 E_angle  =         0.6837 
E_dihed  =         0.0000 E_impro  =         0.0000 E_vdwl   =       752.1829 
E_coul   =     25290.1011 E_long   =    -30013.9005 Press    =       380.8587 
Volume   =     10924.4367 
SHAKE stats (type/ave/delta) on step 170000
  2 0.957018 6.64841e-06
  2 104.52 0.000523761
---------------- Step   170000 ----- CPU =    933.3369 (sec) ----------------
TotEng   =     -3281.6790 KinEng   =       664.8281 Temp     =       308.0608 
PotEng   =     -3946.5071 E_bond   =         4.1560 E_angle  =         1.1290 
E_dihed  =         0.0000 E_impro  =         0.0000 E_vdwl   =       724.2588 
E_coul   =     25333.2220 E_long   =    -30009.2729 Press    =       176.9676 
Volume   =     10784.2291 
SHAKE stats (type/ave/delta) on step 175000
  2 0.957014 8.72906e-06
  2 104.52 0.000630041
---------------- Step   175000 ----- CPU =    960.8477 (sec) ----------------
TotEng   =     -3338.3671 KinEng   =       657.7522 Temp     =       304.7821 
PotEng   =     -3996.1194 E_bond   =         1.0884 E_angle  =         0.6550 
E_dihed  =         0.0000 E_impro  =         0.0000 E_vdwl   =       789.3785 
E_coul   =     25222.0108 E_long   =    -30009.2520 Press    =       613.8549 
Volume   =     10948.9641 
SHAKE stats (type/ave/delta) on step 180000
  2 0.957073 5.67492e-06
  2 104.52 0.000437159
---------------- Step   180000 ----- CPU =    988.5910 (sec) ----------------
TotEng   =     -3331.6282 KinEng   =       625.1974 Temp     =       289.6972 
PotEng   =     -3956.8256 E_bond   =         0.6488 E_angle  =         3.7962 
E_dihed  =         0.0000 E_impro  =         0.0000 E_vdwl   =       780.2273 
E_coul   =     25269.4561 E_long   =    -30010.9540 Press    =       947.3786 
Volume   =     10804.1484 
SHAKE stats (type/ave/delta) on step 185000
  2 0.957005 6.96538e-06
  2 104.52 0.000477886
---------------- Step   185000 ----- CPU =   1016.2280 (sec) ----------------
TotEng   =     -3286.2089 KinEng   =       634.6578 Temp     =       294.0808 
PotEng   =     -3920.8666 E_bond   =         0.8768 E_angle  =         2.6816 
E_dihed  =         0.0000 E_impro  =         0.0000 E_vdwl   =       746.9677 
E_coul   =     25338.8848 E_long   =    -30010.2774 Press    =       -35.1844 
Volume   =     11150.5411 
SHAKE stats (type/ave/delta) on step 190000
  2 0.957022 6.56989e-06
  2 104.52 0.000677008
---------------- Step   190000 ----- CPU =   1044.1292 (sec) ----------------
TotEng   =     -3266.8626 KinEng   =       675.7923 Temp     =       313.1413 
PotEng   =     -3942.6549 E_bond   =         1.6557 E_angle  =         1.9801 
E_dihed  =         0.0000 E_impro  =         0.0000 E_vdwl   =       761.4326 
E_coul   =     25301.5155 E_long   =    -30009.2388 Press    =       298.6401 
Volume   =     10948.6940 
SHAKE stats (type/ave/delta) on step 195000
  2 0.956987 5.0701e-06
  2 104.52 0.000395395
---------------- Step   195000 ----- CPU =   1071.8799 (sec) ----------------
TotEng   =     -3306.4298 KinEng   =       607.4190 Temp     =       281.4592 
PotEng   =     -3913.8488 E_bond   =         0.1180 E_angle  =         1.6755 
E_dihed  =         0.0000 E_impro  =         0.0000 E_vdwl   =       756.4819 
E_coul   =     25338.3051 E_long   =    -30010.4292 Press    =       726.2649 
Volume   =     10908.7812 
SHAKE stats (type/ave/delta) on step 200000
  2 0.95704 1.67046e-05
  2 104.52 0.00110295
---------------- Step   200000 ----- CPU =   1099.3602 (sec) ----------------
TotEng   =     -3322.5096 KinEng   =       642.1789 Temp     =       297.5659 
PotEng   =     -3964.6885 E_bond   =         0.5444 E_angle  =         1.7576 
E_dihed  =         0.0000 E_impro  =         0.0000 E_vdwl   =       783.5728 
E_coul   =     25260.2463 E_long   =    -30010.8095 Press    =       726.0769 
Volume   =     10874.9062 
SHAKE stats (type/ave/delta) on step 205000
  2 0.957028 9.07544e-06
  2 104.52 0.000571837
---------------- Step   205000 ----- CPU =   1126.1561 (sec) ----------------
TotEng   =     -3261.1041 KinEng   =       653.5474 Temp     =       302.8337 
PotEng   =     -3914.6515 E_bond   =         1.8622 E_angle  =         3.2639 
E_dihed  =         0.0000 E_impro  =         0.0000 E_vdwl   =       781.1919 
E_coul   =     25308.7379 E_long   =    -30009.7073 Press    =       929.8835 
Volume   =     11008.5546 
SHAKE stats (type/ave/delta) on step 210000
  2 0.956981 7.25966e-06
  2 104.52 0.000547342
---------------- Step   210000 ----- CPU =   1153.7721 (sec) ----------------
TotEng   =     -3274.0431 KinEng   =       635.3098 Temp     =       294.3830 
PotEng   =     -3909.3529 E_bond   =         1.3847 E_angle  =         1.5566 
E_dihed  =         0.0000 E_impro  =         0.0000 E_vdwl   =       763.0789 
E_coul   =     25334.9524 E_long   =    -30010.3254 Press    =       459.3765 
Volume   =     11185.3976 
SHAKE stats (type/ave/delta) on step 215000
  2 0.956974 1.26221e-05
  2 104.52 0.00129087
---------------- Step   215000 ----- CPU =   1181.2666 (sec) ----------------
TotEng   =     -3304.6455 KinEng   =       657.1811 Temp     =       304.5174 
PotEng   =     -3961.8266 E_bond   =         1.9084 E_angle  =         1.5559 
E_dihed  =         0.0000 E_impro  =         0.0000 E_vdwl   =       762.2242 
E_coul   =     25283.2733 E_long   =    -30010.7884 Press    =       392.8297 
Volume   =     10983.2856 
SHAKE stats (type/ave/delta) on step 220000
  2 0.957044 1.17417e-05
  2 104.52 0.000737016
---------------- Step   220000 ----- CPU =   1209.1524 (sec) ----------------
TotEng   =     -3311.2425 KinEng   =       630.3759 Temp     =       292.0968 
PotEng   =     -3941.6184 E_bond   =         0.5564 E_angle  =         1.7084 
E_dihed  =         0.0000 E_impro  =         0.0000 E_vdwl   =       744.1412 
E_coul   =     25323.2763 E_long   =    -30011.3007 Press    =       805.3441 
Volume   =     10650.2297 
SHAKE stats (type/ave/delta) on step 225000
  2 0.957 6.89906e-06
  2 104.52 0.000490397
---------------- Step   225000 ----- CPU =   1237.1968 (sec) ----------------
TotEng   =     -3286.1821 KinEng   =       675.3754 Temp     =       312.9481 
PotEng   =     -3961.5575 E_bond   =         1.2256 E_angle  =         1.2133 
E_dihed  =         0.0000 E_impro  =         0.0000 E_vdwl   =       780.1555 
E_coul   =     25267.4877 E_long   =    -30011.6395 Press    =      1007.2543 
Volume   =     10716.3198 
SHAKE stats (type/ave/delta) on step 230000
  2 0.957036 4.69689e-06
  2 104.52 0.000392934
---------------- Step   230000 ----- CPU =   1265.4573 (sec) ----------------
TotEng   =     -3268.3938 KinEng   =       649.6360 Temp     =       301.0213 
PotEng   =     -3918.0298 E_bond   =         0.6094 E_angle  =         2.9799 
E_dihed  =         0.0000 E_impro  =         0.0000 E_vdwl   =       739.8551 
E_coul   =     25352.4799 E_long   =    -30013.9541 Press    =       -59.4333 
Volume   =     11104.0770 
SHAKE stats (type/ave/delta) on step 235000
  2 0.956931 1.03835e-05
  2 104.52 0.000655553
---------------- Step   235000 ----- CPU =   1293.4707 (sec) ----------------
TotEng   =     -3191.1569 KinEng   =       708.1492 Temp     =       328.1345 
PotEng   =     -3899.3061 E_bond   =         1.1478 E_angle  =         1.8260 
E_dihed  =         0.0000 E_impro  =         0.0000 E_vdwl   =       724.0327 
E_coul   =     25384.2088 E_long   =    -30010.5215 Press    =        76.4665 
Volume   =     11081.1936 
SHAKE stats (type/ave/delta) on step 240000
  2 0.957049 1.37465e-05
  2 104.52 0.00110363
---------------- Step   240000 ----- CPU =   1320.8835 (sec) ----------------
TotEng   =     -3282.2930 KinEng   =       655.5076 Temp     =       303.7420 
PotEng   =     -3937.8005 E_bond   =         0.5213 E_angle  =         1.1321 
E_dihed  =         0.0000 E_impro  =         0.0000 E_vdwl   =       659.5276 
E_coul   =     25411.2794 E_long   =    -30010.2609 Press    =     -1470.9969 
Volume   =     11004.6049 
SHAKE stats (type/ave/delta) on step 245000
  2 0.956979 5.89786e-06
  2 104.52 0.000574876
---------------- Step   245000 ----- CPU =   1348.5860 (sec) ----------------
TotEng   =     -3275.4170 KinEng   =       649.4532 Temp     =       300.9366 
PotEng   =     -3924.8702 E_bond   =         1.7233 E_angle  =         0.8381 
E_dihed  =         0.0000 E_impro  =         0.0000 E_vdwl   =       770.4818 
E_coul   =     25312.8898 E_long   =    -30010.8032 Press    =       592.8319 
Volume   =     10966.4409 
SHAKE stats (type/ave/delta) on step 250000
  2 0.957031 7.37988e-06
  2 104.52 0.000512915
---------------- Step   250000 ----- CPU =   1376.6954 (sec) ----------------
TotEng   =     -3284.2628 KinEng   =       655.2431 Temp     =       303.6194 
PotEng   =     -3939.5059 E_bond   =         2.3837 E_angle  =         1.5648 
E_dihed  =         0.0000 E_impro  =         0.0000 E_vdwl   =       767.3184 
E_coul   =     25303.0320 E_long   =    -30013.8048 Press    =      1027.7895 
Volume   =     10887.4765 
Loop time of 1376.7 on 8 procs for 250000 steps with 1085 atoms

Pair  time (%) = 902.947 (65.588)
Bond  time (%) = 0.174083 (0.012645)
Kspce time (%) = 234.902 (17.0628)
Neigh time (%) = 47.6331 (3.45996)
Comm  time (%) = 66.4874 (4.82949)
Outpt time (%) = 0.00269425 (0.000195704)
Other time (%) = 124.549 (9.04694)

FFT time (% of Kspce) = 27.6002 (11.7497)
FFT Gflps 3d (1d only) = 4.96718 35.349

Nlocal:    135.625 ave 156 max 129 min
Histogram: 3 2 1 0 1 0 0 0 0 1
Nghost:    4356.12 ave 4385 max 4322 min
Histogram: 1 0 0 1 1 3 0 0 1 1
Neighs:    51995.9 ave 56954 max 46073 min
Histogram: 1 0 1 1 1 0 1 0 2 1

Total # of neighbors = 415967
Ave neighs/atom = 383.38
Ave special neighs/atom = 2.00922
Neighbor list builds = 19772
Dangerous builds = 2364

reset_timestep 0

variable lambda equal ramp(1.0,0.0)

fix fADAPT all adapt 125000   pair lj/cut/tip4p/long/soft lambda 1 3 v_lambda   pair lj/cut/tip4p/long/soft lambda 1 4 v_lambda   pair lj/cut/tip4p/long/soft lambda 2 3 v_lambda   pair lj/cut/tip4p/long/soft lambda 2 4 v_lambda   after yes

variable dlambda equal -0.05

compute cFEP all fep ${temp}   pair lj/cut/tip4p/long/soft lambda 1 3 v_dlambda   pair lj/cut/tip4p/long/soft lambda 1 4 v_dlambda   pair lj/cut/tip4p/long/soft lambda 2 3 v_dlambda   pair lj/cut/tip4p/long/soft lambda 2 4 v_dlambda
compute cFEP all fep 300   pair lj/cut/tip4p/long/soft lambda 1 3 v_dlambda   pair lj/cut/tip4p/long/soft lambda 1 4 v_dlambda   pair lj/cut/tip4p/long/soft lambda 2 3 v_dlambda   pair lj/cut/tip4p/long/soft lambda 2 4 v_dlambda

fix fFEP all ave/time 25 4000 125000 c_cFEP[1] c_cFEP[2] file fep10.lmp

# compute cRDF all rdf 100 3 3 3 4 4 4
# fix fRDF all ave/time 2000 500 ${nsteps} c_cRDF file rdf.lammps mode vector

group owater type 3
360 atoms in group owater
compute cMSD owater msd
fix fMSD owater ave/time 1 1 ${ndump} c_cMSD[1] c_cMSD[2] c_cMSD[3] c_cMSD[4] file msd.lammps
fix fMSD owater ave/time 1 1 25000 c_cMSD[1] c_cMSD[2] c_cMSD[3] c_cMSD[4] file msd.lammps

dump dCONF all custom ${ndump} dump.lammpstrj id mol type element x y z ix iy iz
dump dCONF all custom 25000 dump.lammpstrj id mol type element x y z ix iy iz
dump_modify dCONF element C H O H

run ${nsteps}
run 2500000
PPPM initialization ...
  G vector (1/distance) = 0.285885
  grid = 15 15 15
  stencil order = 5
  estimated absolute RMS force accuracy = 0.0144566
  estimated relative force accuracy = 4.35355e-05
  using double precision FFTs
  3d grid and FFT values/proc = 2744 512
FEP settings ...
  temperature = 300.000000
  tail no
  lj/cut/tip4p/long/soft lambda 1-1 3-3
  lj/cut/tip4p/long/soft lambda 1-1 4-4
  lj/cut/tip4p/long/soft lambda 2-2 3-3
  lj/cut/tip4p/long/soft lambda 2-2 4-4
SHAKE stats (type/ave/delta) on step 0
  2 0.957031 7.37988e-06
  2 104.52 0.000512915
Memory usage per processor = 8.45574 Mbytes
---------------- Step        0 ----- CPU =      0.0000 (sec) ----------------
TotEng   =     -3282.9189 KinEng   =       655.2431 Temp     =       303.6194 
PotEng   =     -3938.1620 E_bond   =         2.3837 E_angle  =         1.5648 
E_dihed  =         0.0000 E_impro  =         0.0000 E_vdwl   =       767.3184 
E_coul   =     27042.2778 E_long   =    -31751.7067 Press    =      1025.5559 
Volume   =     10887.4765 
SHAKE stats (type/ave/delta) on step 5000
  2 0.956978 9.94215e-06
  2 104.52 0.00071128
---------------- Step     5000 ----- CPU =     28.7764 (sec) ----------------
TotEng   =     -3300.8854 KinEng   =       663.1198 Temp     =       307.2693 
PotEng   =     -3964.0051 E_bond   =         0.2395 E_angle  =         2.8566 
E_dihed  =         0.0000 E_impro  =         0.0000 E_vdwl   =       757.2478 
E_coul   =     27023.3723 E_long   =    -31747.7213 Press    =      1053.5853 
Volume   =     10512.5336 
SHAKE stats (type/ave/delta) on step 10000
  2 0.957029 8.4107e-06
  2 104.52 0.000952535
---------------- Step    10000 ----- CPU =     57.8637 (sec) ----------------
TotEng   =     -3321.5744 KinEng   =       621.6091 Temp     =       288.0345 
PotEng   =     -3943.1836 E_bond   =         1.0076 E_angle  =         0.8088 
E_dihed  =         0.0000 E_impro  =         0.0000 E_vdwl   =       783.8798 
E_coul   =     27018.3318 E_long   =    -31747.2117 Press    =       702.3675 
Volume   =     11040.5901 
SHAKE stats (type/ave/delta) on step 15000
  2 0.957037 8.22583e-06
  2 104.52 0.00063789
---------------- Step    15000 ----- CPU =     86.8386 (sec) ----------------
TotEng   =     -3295.3590 KinEng   =       657.0884 Temp     =       304.4745 
PotEng   =     -3952.4475 E_bond   =         0.7571 E_angle  =         2.2322 
E_dihed  =         0.0000 E_impro  =         0.0000 E_vdwl   =       731.7961 
E_coul   =     27060.3411 E_long   =    -31747.5740 Press    =      -385.0908 
Volume   =     10939.1616 
SHAKE stats (type/ave/delta) on step 20000
  2 0.95709 7.23891e-06
  2 104.52 0.000504623
---------------- Step    20000 ----- CPU =    114.8073 (sec) ----------------
TotEng   =     -3406.1099 KinEng   =       642.5961 Temp     =       297.7592 
PotEng   =     -4048.7060 E_bond   =         0.5693 E_angle  =         1.2800 
E_dihed  =         0.0000 E_impro  =         0.0000 E_vdwl   =       833.4037 
E_coul   =     26869.0463 E_long   =    -31753.0053 Press    =      1102.4083 
Volume   =     10952.8180 
SHAKE stats (type/ave/delta) on step 25000
  2 0.957005 1.29363e-05
  2 104.52 0.00192171
---------------- Step    25000 ----- CPU =    142.8406 (sec) ----------------
TotEng   =     -3291.1248 KinEng   =       659.7847 Temp     =       305.7239 
PotEng   =     -3950.9096 E_bond   =         1.4284 E_angle  =         0.8167 
E_dihed  =         0.0000 E_impro  =         0.0000 E_vdwl   =       751.8242 
E_coul   =     27046.1385 E_long   =    -31751.1174 Press    =       409.2044 
Volume   =     10875.4650 
SHAKE stats (type/ave/delta) on step 30000
  2 0.956973 5.97354e-06
  2 104.52 0.000480248
---------------- Step    30000 ----- CPU =    172.0893 (sec) ----------------
TotEng   =     -3319.0412 KinEng   =       642.9412 Temp     =       297.9191 
PotEng   =     -3961.9824 E_bond   =         1.1598 E_angle  =         2.1175 
E_dihed  =         0.0000 E_impro  =         0.0000 E_vdwl   =       766.1106 
E_coul   =     27018.1238 E_long   =    -31749.4940 Press    =       363.6820 
Volume   =     10922.9684 
SHAKE stats (type/ave/delta) on step 35000
  2 0.956945 7.93266e-06
  2 104.52 0.000411201
---------------- Step    35000 ----- CPU =    201.2463 (sec) ----------------
TotEng   =     -3317.3524 KinEng   =       621.6182 Temp     =       288.0387 
PotEng   =     -3938.9707 E_bond   =         0.6130 E_angle  =         3.2684 
E_dihed  =         0.0000 E_impro  =         0.0000 E_vdwl   =       778.6807 
E_coul   =     27028.5784 E_long   =    -31750.1111 Press    =       258.6799 
Volume   =     11235.0659 
SHAKE stats (type/ave/delta) on step 40000
  2 0.957009 7.15637e-06
  2 104.52 0.000598056
---------------- Step    40000 ----- CPU =    231.0033 (sec) ----------------
TotEng   =     -3276.0059 KinEng   =       665.6808 Temp     =       308.4560 
PotEng   =     -3941.6868 E_bond   =         0.7920 E_angle  =         4.2089 
E_dihed  =         0.0000 E_impro  =         0.0000 E_vdwl   =       731.0560 
E_coul   =     27071.5279 E_long   =    -31749.2715 Press    =      -448.0316 
Volume   =     11171.9205 
SHAKE stats (type/ave/delta) on step 45000
  2 0.956972 6.06173e-06
  2 104.52 0.000375728
---------------- Step    45000 ----- CPU =    260.7894 (sec) ----------------
TotEng   =     -3297.6483 KinEng   =       682.4018 Temp     =       316.2039 
PotEng   =     -3980.0500 E_bond   =         0.4139 E_angle  =         1.2101 
E_dihed  =         0.0000 E_impro  =         0.0000 E_vdwl   =       671.6772 
E_coul   =     27097.2803 E_long   =    -31750.6315 Press    =     -1022.2648 
Volume   =     10699.5001 
SHAKE stats (type/ave/delta) on step 50000
  2 0.956997 9.1184e-06
  2 104.52 0.000849952
---------------- Step    50000 ----- CPU =    289.8613 (sec) ----------------
TotEng   =     -3320.0339 KinEng   =       649.6670 Temp     =       301.0356 
PotEng   =     -3969.7009 E_bond   =         0.8134 E_angle  =         1.1078 
E_dihed  =         0.0000 E_impro  =         0.0000 E_vdwl   =       774.5756 
E_coul   =     27005.1484 E_long   =    -31751.3462 Press    =       640.8244 
Volume   =     11017.8268 
SHAKE stats (type/ave/delta) on step 55000
  2 0.957035 4.42155e-06
  2 104.52 0.000437301
---------------- Step    55000 ----- CPU =    318.9588 (sec) ----------------
TotEng   =     -3276.8163 KinEng   =       662.0924 Temp     =       306.7932 
PotEng   =     -3938.9087 E_bond   =         0.5269 E_angle  =         1.4919 
E_dihed  =         0.0000 E_impro  =         0.0000 E_vdwl   =       737.7508 
E_coul   =     27067.3762 E_long   =    -31746.0546 Press    =       195.2147 
Volume   =     10869.5302 
SHAKE stats (type/ave/delta) on step 60000
  2 0.957001 8.5587e-06
  2 104.52 0.000668262
---------------- Step    60000 ----- CPU =    347.9804 (sec) ----------------
TotEng   =     -3387.1551 KinEng   =       632.7325 Temp     =       293.1888 
PotEng   =     -4019.8876 E_bond   =         0.6655 E_angle  =         1.4717 
E_dihed  =         0.0000 E_impro  =         0.0000 E_vdwl   =       832.8282 
E_coul   =     26891.4522 E_long   =    -31746.3052 Press    =      1539.6833 
Volume   =     10827.2184 
SHAKE stats (type/ave/delta) on step 65000
  2 0.957031 7.78746e-06
  2 104.52 0.000532176
---------------- Step    65000 ----- CPU =    376.8493 (sec) ----------------
TotEng   =     -3341.0397 KinEng   =       633.3480 Temp     =       293.4739 
PotEng   =     -3974.3878 E_bond   =         0.9576 E_angle  =         0.9696 
E_dihed  =         0.0000 E_impro  =         0.0000 E_vdwl   =       725.9517 
E_coul   =     27044.8210 E_long   =    -31747.0875 Press    =      -863.3940 
Volume   =     11058.8144 
SHAKE stats (type/ave/delta) on step 70000
  2 0.957038 5.16901e-06
  2 104.52 0.000427408
---------------- Step    70000 ----- CPU =    405.1574 (sec) ----------------
TotEng   =     -3261.5062 KinEng   =       618.9769 Temp     =       286.8148 
PotEng   =     -3880.4831 E_bond   =         0.8355 E_angle  =         0.5989 
E_dihed  =         0.0000 E_impro  =         0.0000 E_vdwl   =       740.0648 
E_coul   =     27125.4962 E_long   =    -31747.4785 Press    =       325.5319 
Volume   =     11060.8072 
SHAKE stats (type/ave/delta) on step 75000
  2 0.95703 5.32731e-06
  2 104.52 0.000437881
---------------- Step    75000 ----- CPU =    434.5144 (sec) ----------------
TotEng   =     -3328.8181 KinEng   =       632.7126 Temp     =       293.1795 
PotEng   =     -3961.5307 E_bond   =         0.6055 E_angle  =         0.6231 
E_dihed  =         0.0000 E_impro  =         0.0000 E_vdwl   =       738.6937 
E_coul   =     27048.5174 E_long   =    -31749.9705 Press    =      -147.5561 
Volume   =     10961.4704 
SHAKE stats (type/ave/delta) on step 80000
  2 0.957015 6.99623e-06
  2 104.52 0.000787169
---------------- Step    80000 ----- CPU =    463.5755 (sec) ----------------
TotEng   =     -3307.2032 KinEng   =       626.0967 Temp     =       290.1139 
PotEng   =     -3933.2999 E_bond   =         0.6468 E_angle  =         1.7572 
E_dihed  =         0.0000 E_impro  =         0.0000 E_vdwl   =       695.8300 
E_coul   =     27119.3258 E_long   =    -31750.8597 Press    =      -406.1529 
Volume   =     10760.7090 
SHAKE stats (type/ave/delta) on step 85000
  2 0.956915 4.92197e-06
  2 104.52 0.00055942
---------------- Step    85000 ----- CPU =    492.0377 (sec) ----------------
TotEng   =     -3339.1433 KinEng   =       629.0975 Temp     =       291.5044 
PotEng   =     -3968.2408 E_bond   =         0.2798 E_angle  =         2.2216 
E_dihed  =         0.0000 E_impro  =         0.0000 E_vdwl   =       767.6365 
E_coul   =     27005.6390 E_long   =    -31744.0177 Press    =       534.7271 
Volume   =     10950.4661 
SHAKE stats (type/ave/delta) on step 90000
  2 0.956986 1.59409e-05
  2 104.52 0.00151606
---------------- Step    90000 ----- CPU =    520.1964 (sec) ----------------
TotEng   =     -3262.7750 KinEng   =       645.4047 Temp     =       299.0606 
PotEng   =     -3908.1797 E_bond   =         0.4960 E_angle  =         0.9875 
E_dihed  =         0.0000 E_impro  =         0.0000 E_vdwl   =       760.6421 
E_coul   =     27082.1422 E_long   =    -31752.4475 Press    =       503.5393 
Volume   =     11118.5522 
SHAKE stats (type/ave/delta) on step 95000
  2 0.957014 5.84953e-06
  2 104.52 0.000576501
---------------- Step    95000 ----- CPU =    548.5444 (sec) ----------------
TotEng   =     -3252.7097 KinEng   =       675.7691 Temp     =       313.1306 
PotEng   =     -3928.4788 E_bond   =         0.3197 E_angle  =         1.9345 
E_dihed  =         0.0000 E_impro  =         0.0000 E_vdwl   =       771.1556 
E_coul   =     27048.4217 E_long   =    -31750.3103 Press    =       798.6826 
Volume   =     11024.7448 
SHAKE stats (type/ave/delta) on step 100000
  2 0.957043 5.77536e-06
  2 104.52 0.000443754
---------------- Step   100000 ----- CPU =    577.3623 (sec) ----------------
TotEng   =     -3294.1637 KinEng   =       673.9682 Temp     =       312.2961 
PotEng   =     -3968.1320 E_bond   =         0.4177 E_angle  =         1.3116 
E_dihed  =         0.0000 E_impro  =         0.0000 E_vdwl   =       721.7868 
E_coul   =     27060.0127 E_long   =    -31751.6609 Press    =      -203.4100 
Volume   =     10849.1412 
SHAKE stats (type/ave/delta) on step 105000
  2 0.956984 5.81709e-06
  2 104.52 0.000521811
---------------- Step   105000 ----- CPU =    606.1417 (sec) ----------------
TotEng   =     -3327.5369 KinEng   =       659.1980 Temp     =       305.4520 
PotEng   =     -3986.7349 E_bond   =         0.6930 E_angle  =         0.5801 
E_dihed  =         0.0000 E_impro  =         0.0000 E_vdwl   =       748.4126 
E_coul   =     27012.2870 E_long   =    -31748.7076 Press    =      -113.6505 
Volume   =     11030.2118 
SHAKE stats (type/ave/delta) on step 110000
  2 0.956995 5.89035e-06
  2 104.52 0.000522765
---------------- Step   110000 ----- CPU =    635.0020 (sec) ----------------
TotEng   =     -3310.0932 KinEng   =       648.2114 Temp     =       300.3612 
PotEng   =     -3958.3046 E_bond   =         0.4857 E_angle  =         0.9562 
E_dihed  =         0.0000 E_impro  =         0.0000 E_vdwl   =       705.6576 
E_coul   =     27079.4845 E_long   =    -31744.8886 Press    =      -911.4466 
Volume   =     10993.1531 
SHAKE stats (type/ave/delta) on step 115000
  2 0.956985 1.45191e-05
  2 104.52 0.000963113
---------------- Step   115000 ----- CPU =    663.0321 (sec) ----------------
TotEng   =     -3322.4228 KinEng   =       643.4288 Temp     =       298.1451 
PotEng   =     -3965.8516 E_bond   =         0.2800 E_angle  =         1.2117 
E_dihed  =         0.0000 E_impro  =         0.0000 E_vdwl   =       663.5607 
E_coul   =     27118.3149 E_long   =    -31749.2189 Press    =     -1821.9097 
Volume   =     10957.9215 
SHAKE stats (type/ave/delta) on step 120000
  2 0.956968 5.03129e-06
  2 104.52 0.000446058
---------------- Step   120000 ----- CPU =    691.2948 (sec) ----------------
TotEng   =     -3310.3374 KinEng   =       641.4927 Temp     =       297.2480 
PotEng   =     -3951.8301 E_bond   =         0.4377 E_angle  =         1.2347 
E_dihed  =         0.0000 E_impro  =         0.0000 E_vdwl   =       720.2494 
E_coul   =     27074.5200 E_long   =    -31748.2719 Press    =      -713.1490 
Volume   =     11262.9935 
SHAKE stats (type/ave/delta) on step 125000
  2 0.956954 5.26358e-06
  2 104.52 0.000409541
---------------- Step   125000 ----- CPU =    720.1318 (sec) ----------------
TotEng   =     -3326.9205 KinEng   =       642.1740 Temp     =       297.5636 
PotEng   =     -3969.0945 E_bond   =         0.6935 E_angle  =         1.4406 
E_dihed  =         0.0000 E_impro  =         0.0000 E_vdwl   =       768.2206 
E_coul   =     27010.0978 E_long   =    -31749.5470 Press    =       378.6602 
Volume   =     10924.8373 
SHAKE stats (type/ave/delta) on step 130000
  2 0.956918 7.74901e-06
  2 104.52 0.000551951
---------------- Step   130000 ----- CPU =    747.2997 (sec) ----------------
TotEng   =     -3319.0818 KinEng   =       667.6850 Temp     =       309.3847 
PotEng   =     -3986.7669 E_bond   =         0.0536 E_angle  =         1.3148 
E_dihed  =         0.0000 E_impro  =         0.0000 E_vdwl   =       737.8095 
E_coul   =     27026.2430 E_long   =    -31752.1876 Press    =      -669.5863 
Volume   =     11156.3029 
SHAKE stats (type/ave/delta) on step 135000
  2 0.956988 6.2764e-06
  2 104.52 0.000707548
---------------- Step   135000 ----- CPU =    774.3455 (sec) ----------------
TotEng   =     -3344.7222 KinEng   =       639.7085 Temp     =       296.4212 
PotEng   =     -3984.4307 E_bond   =         0.8487 E_angle  =         1.6642 
E_dihed  =         0.0000 E_impro  =         0.0000 E_vdwl   =       726.5863 
E_coul   =     27033.7212 E_long   =    -31747.2511 Press    =      -439.1068 
Volume   =     10963.2400 
SHAKE stats (type/ave/delta) on step 140000
  2 0.957068 8.81297e-06
  2 104.52 0.000610639
---------------- Step   140000 ----- CPU =    801.4507 (sec) ----------------
TotEng   =     -3230.1429 KinEng   =       674.1881 Temp     =       312.3980 
PotEng   =     -3904.3310 E_bond   =         0.9064 E_angle  =         0.8411 
E_dihed  =         0.0000 E_impro  =         0.0000 E_vdwl   =       755.2792 
E_coul   =     27083.6310 E_long   =    -31744.9888 Press    =       519.2271 
Volume   =     11155.6388 
SHAKE stats (type/ave/delta) on step 145000
  2 0.957031 5.5685e-06
  2 104.52 0.000545634
---------------- Step   145000 ----- CPU =    828.5657 (sec) ----------------
TotEng   =     -3294.1652 KinEng   =       679.4116 Temp     =       314.8184 
PotEng   =     -3973.5768 E_bond   =         1.2383 E_angle  =         4.1999 
E_dihed  =         0.0000 E_impro  =         0.0000 E_vdwl   =       767.5184 
E_coul   =     27000.9495 E_long   =    -31747.4829 Press    =       591.1238 
Volume   =     10952.1895 
SHAKE stats (type/ave/delta) on step 150000
  2 0.956944 1.29751e-05
  2 104.52 0.00116159
---------------- Step   150000 ----- CPU =    857.1539 (sec) ----------------
TotEng   =     -3286.3337 KinEng   =       647.4864 Temp     =       300.0252 
PotEng   =     -3933.8201 E_bond   =         0.8579 E_angle  =         0.6086 
E_dihed  =         0.0000 E_impro  =         0.0000 E_vdwl   =       718.0439 
E_coul   =     27096.8874 E_long   =    -31750.2178 Press    =       222.6481 
Volume   =     10636.2628 
SHAKE stats (type/ave/delta) on step 155000
  2 0.956957 6.82007e-06
  2 104.52 0.000632639
---------------- Step   155000 ----- CPU =    886.8909 (sec) ----------------
TotEng   =     -3278.3681 KinEng   =       665.8945 Temp     =       308.5550 
PotEng   =     -3944.2627 E_bond   =         0.4152 E_angle  =         3.4476 
E_dihed  =         0.0000 E_impro  =         0.0000 E_vdwl   =       772.9271 
E_coul   =     27026.9143 E_long   =    -31747.9668 Press    =       981.1755 
Volume   =     10752.5845 
SHAKE stats (type/ave/delta) on step 160000
  2 0.957 6.18233e-06
  2 104.52 0.000874867
---------------- Step   160000 ----- CPU =    915.9699 (sec) ----------------
TotEng   =     -3345.4721 KinEng   =       632.5790 Temp     =       293.1176 
PotEng   =     -3978.0511 E_bond   =         1.3328 E_angle  =         3.3684 
E_dihed  =         0.0000 E_impro  =         0.0000 E_vdwl   =       737.9392 
E_coul   =     27030.0578 E_long   =    -31750.7492 Press    =      -586.3066 
Volume   =     11045.1823 
SHAKE stats (type/ave/delta) on step 165000
  2 0.957015 5.1829e-06
  2 104.52 0.000407799
---------------- Step   165000 ----- CPU =    944.4404 (sec) ----------------
TotEng   =     -3310.5799 KinEng   =       654.6780 Temp     =       303.3576 
PotEng   =     -3965.2580 E_bond   =         0.4447 E_angle  =         2.6682 
E_dihed  =         0.0000 E_impro  =         0.0000 E_vdwl   =       738.7026 
E_coul   =     27041.4498 E_long   =    -31748.5231 Press    =      -282.9633 
Volume   =     10965.5580 
SHAKE stats (type/ave/delta) on step 170000
  2 0.956955 7.83679e-06
  2 104.52 0.000728768
---------------- Step   170000 ----- CPU =    973.3944 (sec) ----------------
TotEng   =     -3365.2798 KinEng   =       620.2046 Temp     =       287.3837 
PotEng   =     -3985.4844 E_bond   =         0.3010 E_angle  =         1.3395 
E_dihed  =         0.0000 E_impro  =         0.0000 E_vdwl   =       781.3626 
E_coul   =     26982.2883 E_long   =    -31750.7758 Press    =       267.2923 
Volume   =     11023.0853 
SHAKE stats (type/ave/delta) on step 175000
  2 0.956947 4.65818e-06
  2 104.52 0.000420195
---------------- Step   175000 ----- CPU =   1002.9167 (sec) ----------------
TotEng   =     -3329.4178 KinEng   =       642.6515 Temp     =       297.7849 
PotEng   =     -3972.0693 E_bond   =         0.5582 E_angle  =         1.5722 
E_dihed  =         0.0000 E_impro  =         0.0000 E_vdwl   =       725.9436 
E_coul   =     27045.8904 E_long   =    -31746.0337 Press    =      -585.3764 
Volume   =     10959.3078 
SHAKE stats (type/ave/delta) on step 180000
  2 0.95699 6.94563e-06
  2 104.52 0.000508512
---------------- Step   180000 ----- CPU =   1032.4110 (sec) ----------------
TotEng   =     -3234.0237 KinEng   =       646.8611 Temp     =       299.7355 
PotEng   =     -3880.8848 E_bond   =         0.1148 E_angle  =         2.0370 
E_dihed  =         0.0000 E_impro  =         0.0000 E_vdwl   =       711.2814 
E_coul   =     27152.3004 E_long   =    -31746.6185 Press    =      -212.6109 
Volume   =     11167.2918 
SHAKE stats (type/ave/delta) on step 185000
  2 0.956956 1.43012e-05
  2 104.52 0.00134399
---------------- Step   185000 ----- CPU =   1062.2335 (sec) ----------------
TotEng   =     -3334.3624 KinEng   =       624.4831 Temp     =       289.3662 
PotEng   =     -3958.8455 E_bond   =         1.0931 E_angle  =         1.3673 
E_dihed  =         0.0000 E_impro  =         0.0000 E_vdwl   =       728.2744 
E_coul   =     27062.0643 E_long   =    -31751.6446 Press    =      -501.0334 
Volume   =     10915.2816 
SHAKE stats (type/ave/delta) on step 190000
  2 0.956938 4.73103e-06
  2 104.52 0.00036096
---------------- Step   190000 ----- CPU =   1091.5299 (sec) ----------------
TotEng   =     -3259.4185 KinEng   =       614.7878 Temp     =       284.8737 
PotEng   =     -3874.2063 E_bond   =         0.5467 E_angle  =         3.0314 
E_dihed  =         0.0000 E_impro  =         0.0000 E_vdwl   =       689.9465 
E_coul   =     27180.2198 E_long   =    -31747.9506 Press    =      -252.2384 
Volume   =     10963.6586 
SHAKE stats (type/ave/delta) on step 195000
  2 0.956929 8.74132e-06
  2 104.52 0.000603539
---------------- Step   195000 ----- CPU =   1120.4304 (sec) ----------------
TotEng   =     -3224.8145 KinEng   =       642.2638 Temp     =       297.6052 
PotEng   =     -3867.0783 E_bond   =         0.4036 E_angle  =         1.5279 
E_dihed  =         0.0000 E_impro  =         0.0000 E_vdwl   =       719.4878 
E_coul   =     27157.6879 E_long   =    -31746.1855 Press    =       458.4350 
Volume   =     10998.7446 
SHAKE stats (type/ave/delta) on step 200000
  2 0.956962 5.90455e-06
  2 104.52 0.000620208
---------------- Step   200000 ----- CPU =   1148.9889 (sec) ----------------
TotEng   =     -3345.6108 KinEng   =       647.2904 Temp     =       299.9344 
PotEng   =     -3992.9012 E_bond   =         0.0716 E_angle  =         1.5878 
E_dihed  =         0.0000 E_impro  =         0.0000 E_vdwl   =       778.2815 
E_coul   =     26974.7567 E_long   =    -31747.5988 Press    =       547.5331 
Volume   =     10930.0616 
SHAKE stats (type/ave/delta) on step 205000
  2 0.957002 1.00682e-05
  2 104.52 0.000863234
---------------- Step   205000 ----- CPU =   1177.7056 (sec) ----------------
TotEng   =     -3311.7505 KinEng   =       642.8472 Temp     =       297.8756 
PotEng   =     -3954.5977 E_bond   =         1.3279 E_angle  =         1.8035 
E_dihed  =         0.0000 E_impro  =         0.0000 E_vdwl   =       730.9038 
E_coul   =     27057.0737 E_long   =    -31745.7065 Press    =      -282.9593 
Volume   =     10919.3476 
SHAKE stats (type/ave/delta) on step 210000
  2 0.956974 2.08569e-05
  2 104.52 0.00155686
---------------- Step   210000 ----- CPU =   1206.7083 (sec) ----------------
TotEng   =     -3297.2110 KinEng   =       667.8404 Temp     =       309.4566 
PotEng   =     -3965.0514 E_bond   =         1.2051 E_angle  =         1.6596 
E_dihed  =         0.0000 E_impro  =         0.0000 E_vdwl   =       729.6406 
E_coul   =     27052.3912 E_long   =    -31749.9479 Press    =      -726.9639 
Volume   =     11103.9293 
SHAKE stats (type/ave/delta) on step 215000
  2 0.957033 9.98264e-06
  2 104.52 0.000719162
---------------- Step   215000 ----- CPU =   1235.5490 (sec) ----------------
TotEng   =     -3277.1711 KinEng   =       635.1858 Temp     =       294.3255 
PotEng   =     -3912.3569 E_bond   =         1.0800 E_angle  =         1.6859 
E_dihed  =         0.0000 E_impro  =         0.0000 E_vdwl   =       699.2937 
E_coul   =     27134.5575 E_long   =    -31748.9741 Press    =      -594.0322 
Volume   =     11176.6578 
SHAKE stats (type/ave/delta) on step 220000
  2 0.957023 7.0829e-06
  2 104.52 0.000623054
---------------- Step   220000 ----- CPU =   1264.1679 (sec) ----------------
TotEng   =     -3273.0788 KinEng   =       671.4801 Temp     =       311.1432 
PotEng   =     -3944.5589 E_bond   =         0.8903 E_angle  =         0.5988 
E_dihed  =         0.0000 E_impro  =         0.0000 E_vdwl   =       790.0325 
E_coul   =     27013.7347 E_long   =    -31749.8152 Press    =      1295.0189 
Volume   =     10891.9704 
SHAKE stats (type/ave/delta) on step 225000
  2 0.95701 9.34956e-06
  2 104.52 0.000772054
---------------- Step   225000 ----- CPU =   1292.9293 (sec) ----------------
TotEng   =     -3244.3819 KinEng   =       653.7081 Temp     =       302.9082 
PotEng   =     -3898.0899 E_bond   =         0.2300 E_angle  =         0.7657 
E_dihed  =         0.0000 E_impro  =         0.0000 E_vdwl   =       701.7068 
E_coul   =     27147.3858 E_long   =    -31748.1782 Press    =      -720.5336 
Volume   =     11253.3322 
SHAKE stats (type/ave/delta) on step 230000
  2 0.957063 5.54983e-06
  2 104.52 0.000597379
---------------- Step   230000 ----- CPU =   1321.8964 (sec) ----------------
TotEng   =     -3251.3787 KinEng   =       649.9444 Temp     =       301.1642 
PotEng   =     -3901.3231 E_bond   =         1.0208 E_angle  =         2.9574 
E_dihed  =         0.0000 E_impro  =         0.0000 E_vdwl   =       748.3785 
E_coul   =     27098.1804 E_long   =    -31751.8602 Press    =       403.8640 
Volume   =     10992.7574 
SHAKE stats (type/ave/delta) on step 235000
  2 0.956983 9.72017e-06
  2 104.52 0.000616987
---------------- Step   235000 ----- CPU =   1350.7595 (sec) ----------------
TotEng   =     -3348.9658 KinEng   =       644.5889 Temp     =       298.6826 
PotEng   =     -3993.5546 E_bond   =         0.6858 E_angle  =         4.3325 
E_dihed  =         0.0000 E_impro  =         0.0000 E_vdwl   =       774.1672 
E_coul   =     26978.7726 E_long   =    -31751.5127 Press    =      -257.5731 
Volume   =     11209.9549 
SHAKE stats (type/ave/delta) on step 240000
  2 0.956928 6.02836e-06
  2 104.52 0.000432822
---------------- Step   240000 ----- CPU =   1379.4256 (sec) ----------------
TotEng   =     -3331.0829 KinEng   =       625.5226 Temp     =       289.8479 
PotEng   =     -3956.6055 E_bond   =         0.6213 E_angle  =         1.3866 
E_dihed  =         0.0000 E_impro  =         0.0000 E_vdwl   =       804.7252 
E_coul   =     26987.1076 E_long   =    -31750.4462 Press    =      1289.6234 
Volume   =     10766.4441 
SHAKE stats (type/ave/delta) on step 245000
  2 0.956994 8.40858e-06
  2 104.52 0.000668885
---------------- Step   245000 ----- CPU =   1408.5118 (sec) ----------------
TotEng   =     -3339.7389 KinEng   =       620.5023 Temp     =       287.5216 
PotEng   =     -3960.2412 E_bond   =         1.5907 E_angle  =         1.6909 
E_dihed  =         0.0000 E_impro  =         0.0000 E_vdwl   =       778.0664 
E_coul   =     27005.9015 E_long   =    -31747.4907 Press    =       385.5384 
Volume   =     11086.6875 
SHAKE stats (type/ave/delta) on step 250000
  2 0.957016 5.75895e-06
  2 104.52 0.00075538
---------------- Step   250000 ----- CPU =   1437.2679 (sec) ----------------
TotEng   =     -3278.8293 KinEng   =       640.4462 Temp     =       296.7630 
PotEng   =     -3919.2754 E_bond   =         3.1354 E_angle  =         2.1861 
E_dihed  =         0.0000 E_impro  =         0.0000 E_vdwl   =       730.6359 
E_coul   =     27097.4114 E_long   =    -31752.6442 Press    =       162.8479 
Volume   =     10883.3733 
SHAKE stats (type/ave/delta) on step 255000
  2 0.956962 1.09965e-05
  2 104.52 0.00106545
---------------- Step   255000 ----- CPU =   1465.7927 (sec) ----------------
TotEng   =     -3242.9408 KinEng   =       664.5348 Temp     =       307.9250 
PotEng   =     -3907.4756 E_bond   =         1.9081 E_angle  =         3.0655 
E_dihed  =         0.0000 E_impro  =         0.0000 E_vdwl   =       731.3623 
E_coul   =     27107.3751 E_long   =    -31751.1867 Press    =       292.0467 
Volume   =     10856.4126 
SHAKE stats (type/ave/delta) on step 260000
  2 0.957 7.37496e-06
  2 104.52 0.000651882
---------------- Step   260000 ----- CPU =   1494.3215 (sec) ----------------
TotEng   =     -3283.4673 KinEng   =       660.5612 Temp     =       306.0837 
PotEng   =     -3944.0286 E_bond   =         1.8747 E_angle  =         1.0573 
E_dihed  =         0.0000 E_impro  =         0.0000 E_vdwl   =       749.0909 
E_coul   =     27052.8427 E_long   =    -31748.8943 Press    =      -207.8424 
Volume   =     11130.1065 
SHAKE stats (type/ave/delta) on step 265000
  2 0.956985 7.72291e-06
  2 104.52 0.000698161
---------------- Step   265000 ----- CPU =   1521.7587 (sec) ----------------
TotEng   =     -3309.2447 KinEng   =       658.3397 Temp     =       305.0543 
PotEng   =     -3967.5844 E_bond   =         1.7928 E_angle  =         2.8625 
E_dihed  =         0.0000 E_impro  =         0.0000 E_vdwl   =       751.8834 
E_coul   =     27024.6870 E_long   =    -31748.8101 Press    =        94.3514 
Volume   =     10970.3850 
SHAKE stats (type/ave/delta) on step 270000
  2 0.956959 6.60318e-06
  2 104.52 0.000498674
---------------- Step   270000 ----- CPU =   1549.1570 (sec) ----------------
TotEng   =     -3301.2324 KinEng   =       649.1204 Temp     =       300.7824 
PotEng   =     -3950.3529 E_bond   =         0.7160 E_angle  =         1.2842 
E_dihed  =         0.0000 E_impro  =         0.0000 E_vdwl   =       736.7717 
E_coul   =     27061.1221 E_long   =    -31750.2469 Press    =       -16.8341 
Volume   =     10981.2843 
SHAKE stats (type/ave/delta) on step 275000
  2 0.957004 4.5124e-06
  2 104.52 0.000430997
---------------- Step   275000 ----- CPU =   1576.7817 (sec) ----------------
TotEng   =     -3296.0314 KinEng   =       658.0851 Temp     =       304.9363 
PotEng   =     -3954.1165 E_bond   =         0.1966 E_angle  =         2.1898 
E_dihed  =         0.0000 E_impro  =         0.0000 E_vdwl   =       790.6958 
E_coul   =     27004.4806 E_long   =    -31751.6792 Press    =       878.3093 
Volume   =     10932.9112 
SHAKE stats (type/ave/delta) on step 280000
  2 0.957027 8.57167e-06
  2 104.52 0.000544178
---------------- Step   280000 ----- CPU =   1605.2945 (sec) ----------------
TotEng   =     -3320.3164 KinEng   =       652.1169 Temp     =       302.1709 
PotEng   =     -3972.4333 E_bond   =         1.9282 E_angle  =         0.7717 
E_dihed  =         0.0000 E_impro  =         0.0000 E_vdwl   =       709.6144 
E_coul   =     27062.8614 E_long   =    -31747.6090 Press    =      -708.6202 
Volume   =     10915.2161 
SHAKE stats (type/ave/delta) on step 285000
  2 0.957023 4.8814e-06
  2 104.52 0.000397236
---------------- Step   285000 ----- CPU =   1634.7652 (sec) ----------------
TotEng   =     -3313.4745 KinEng   =       642.6004 Temp     =       297.7612 
PotEng   =     -3956.0750 E_bond   =         1.6215 E_angle  =         2.9900 
E_dihed  =         0.0000 E_impro  =         0.0000 E_vdwl   =       730.8646 
E_coul   =     27058.9807 E_long   =    -31750.5318 Press    =       -37.5183 
Volume   =     10925.3265 
SHAKE stats (type/ave/delta) on step 290000
  2 0.95699 8.87352e-06
  2 104.52 0.000668383
---------------- Step   290000 ----- CPU =   1663.6397 (sec) ----------------
TotEng   =     -3220.3342 KinEng   =       672.7739 Temp     =       311.7427 
PotEng   =     -3893.1081 E_bond   =         1.0403 E_angle  =         1.7093 
E_dihed  =         0.0000 E_impro  =         0.0000 E_vdwl   =       728.5820 
E_coul   =     27121.8197 E_long   =    -31746.2595 Press    =       166.0999 
Volume   =     11075.4892 
SHAKE stats (type/ave/delta) on step 295000
  2 0.956999 9.25663e-06
  2 104.52 0.00109002
---------------- Step   295000 ----- CPU =   1692.9048 (sec) ----------------
TotEng   =     -3316.8043 KinEng   =       657.9558 Temp     =       304.8765 
PotEng   =     -3974.7602 E_bond   =         1.4057 E_angle  =         2.1315 
E_dihed  =         0.0000 E_impro  =         0.0000 E_vdwl   =       678.7202 
E_coul   =     27091.2140 E_long   =    -31748.2315 Press    =     -1651.4900 
Volume   =     10958.1418 
SHAKE stats (type/ave/delta) on step 300000
  2 0.956973 5.29752e-06
  2 104.52 0.000468259
---------------- Step   300000 ----- CPU =   1721.8699 (sec) ----------------
TotEng   =     -3287.0670 KinEng   =       634.2391 Temp     =       293.8868 
PotEng   =     -3921.3060 E_bond   =         1.7206 E_angle  =         1.6287 
E_dihed  =         0.0000 E_impro  =         0.0000 E_vdwl   =       775.7533 
E_coul   =     27049.7587 E_long   =    -31750.1674 Press    =       563.9756 
Volume   =     10997.9277 
SHAKE stats (type/ave/delta) on step 305000
  2 0.956937 7.3465e-06
  2 104.52 0.000733041
---------------- Step   305000 ----- CPU =   1750.9228 (sec) ----------------
TotEng   =     -3247.4433 KinEng   =       686.5901 Temp     =       318.1447 
PotEng   =     -3934.0334 E_bond   =         0.3685 E_angle  =         1.6568 
E_dihed  =         0.0000 E_impro  =         0.0000 E_vdwl   =       766.6196 
E_coul   =     27047.0831 E_long   =    -31749.7614 Press    =      1107.0723 
Volume   =     10815.3434 
SHAKE stats (type/ave/delta) on step 310000
  2 0.956988 5.27785e-06
  2 104.52 0.000444573
---------------- Step   310000 ----- CPU =   1780.5725 (sec) ----------------
TotEng   =     -3318.0762 KinEng   =       660.5959 Temp     =       306.0998 
PotEng   =     -3978.6722 E_bond   =         0.6936 E_angle  =         1.4066 
E_dihed  =         0.0000 E_impro  =         0.0000 E_vdwl   =       789.1098 
E_coul   =     26981.2482 E_long   =    -31751.1303 Press    =       860.3581 
Volume   =     10877.5487 
SHAKE stats (type/ave/delta) on step 315000
  2 0.956965 1.6073e-05
  2 104.52 0.000870557
---------------- Step   315000 ----- CPU =   1809.9829 (sec) ----------------
TotEng   =     -3281.8895 KinEng   =       654.9949 Temp     =       303.5045 
PotEng   =     -3936.8845 E_bond   =         0.9838 E_angle  =         0.9573 
E_dihed  =         0.0000 E_impro  =         0.0000 E_vdwl   =       742.4355 
E_coul   =     27068.7178 E_long   =    -31749.9788 Press    =      -498.6349 
Volume   =     11156.9952 
SHAKE stats (type/ave/delta) on step 320000
  2 0.956991 9.31626e-06
  2 104.52 0.000586895
---------------- Step   320000 ----- CPU =   1839.3111 (sec) ----------------
TotEng   =     -3313.1175 KinEng   =       657.0364 Temp     =       304.4504 
PotEng   =     -3970.1539 E_bond   =         0.5125 E_angle  =         2.1289 
E_dihed  =         0.0000 E_impro  =         0.0000 E_vdwl   =       785.8110 
E_coul   =     26990.7145 E_long   =    -31749.3207 Press    =      1055.4773 
Volume   =     10756.7873 
SHAKE stats (type/ave/delta) on step 325000
  2 0.956977 4.59009e-06
  2 104.52 0.000478203
---------------- Step   325000 ----- CPU =   1867.5621 (sec) ----------------
TotEng   =     -3372.0349 KinEng   =       619.9940 Temp     =       287.2861 
PotEng   =     -3992.0290 E_bond   =         1.1485 E_angle  =         1.9683 
E_dihed  =         0.0000 E_impro  =         0.0000 E_vdwl   =       793.8462 
E_coul   =     26963.1704 E_long   =    -31752.1623 Press    =       524.6255 
Volume   =     10825.0107 
SHAKE stats (type/ave/delta) on step 330000
  2 0.957047 4.65231e-06
  2 104.52 0.000411801
---------------- Step   330000 ----- CPU =   1896.2845 (sec) ----------------
TotEng   =     -3245.3868 KinEng   =       659.4364 Temp     =       305.5625 
PotEng   =     -3904.8232 E_bond   =         0.8940 E_angle  =         1.0999 
E_dihed  =         0.0000 E_impro  =         0.0000 E_vdwl   =       737.3332 
E_coul   =     27104.5508 E_long   =    -31748.7012 Press    =       176.3131 
Volume   =     11001.3715 
SHAKE stats (type/ave/delta) on step 335000
  2 0.95702 9.73969e-06
  2 104.52 0.000899165
---------------- Step   335000 ----- CPU =   1924.6029 (sec) ----------------
TotEng   =     -3321.5041 KinEng   =       675.3474 Temp     =       312.9351 
PotEng   =     -3996.8514 E_bond   =         0.1260 E_angle  =         2.1566 
E_dihed  =         0.0000 E_impro  =         0.0000 E_vdwl   =       796.0697 
E_coul   =     26952.2156 E_long   =    -31747.4194 Press    =       944.6033 
Volume   =     10866.8082 
SHAKE stats (type/ave/delta) on step 340000
  2 0.956957 6.96627e-06
  2 104.52 0.000572827
---------------- Step   340000 ----- CPU =   1953.0494 (sec) ----------------
TotEng   =     -3322.6735 KinEng   =       621.6144 Temp     =       288.0370 
PotEng   =     -3944.2879 E_bond   =         2.7025 E_angle  =         2.3784 
E_dihed  =         0.0000 E_impro  =         0.0000 E_vdwl   =       742.1374 
E_coul   =     27058.2712 E_long   =    -31749.7775 Press    =      -447.9285 
Volume   =     11087.5828 
SHAKE stats (type/ave/delta) on step 345000
  2 0.956976 1.03923e-05
  2 104.52 0.000885305
---------------- Step   345000 ----- CPU =   1982.1095 (sec) ----------------
TotEng   =     -3300.4368 KinEng   =       637.7325 Temp     =       295.5056 
PotEng   =     -3938.1693 E_bond   =         0.7185 E_angle  =         0.3793 
E_dihed  =         0.0000 E_impro  =         0.0000 E_vdwl   =       810.3736 
E_coul   =     26997.7704 E_long   =    -31747.4111 Press    =      1494.5321 
Volume   =     10989.5245 
SHAKE stats (type/ave/delta) on step 350000
  2 0.957017 5.74471e-06
  2 104.52 0.000644051
---------------- Step   350000 ----- CPU =   2012.0307 (sec) ----------------
TotEng   =     -3307.1011 KinEng   =       637.2065 Temp     =       295.2618 
PotEng   =     -3944.3076 E_bond   =         0.3029 E_angle  =         1.2567 
E_dihed  =         0.0000 E_impro  =         0.0000 E_vdwl   =       700.7739 
E_coul   =     27101.7992 E_long   =    -31748.4403 Press    =      -680.7603 
Volume   =     10919.3376 
SHAKE stats (type/ave/delta) on step 355000
  2 0.957045 1.20325e-05
  2 104.52 0.000989918
---------------- Step   355000 ----- CPU =   2041.0887 (sec) ----------------
TotEng   =     -3291.5403 KinEng   =       625.7678 Temp     =       289.9615 
PotEng   =     -3917.3081 E_bond   =         1.1207 E_angle  =         1.3522 
E_dihed  =         0.0000 E_impro  =         0.0000 E_vdwl   =       730.7739 
E_coul   =     27098.7247 E_long   =    -31749.2796 Press    =      -441.4754 
Volume   =     11035.1764 
SHAKE stats (type/ave/delta) on step 360000
  2 0.957038 1.12981e-05
  2 104.52 0.000946507
---------------- Step   360000 ----- CPU =   2070.0853 (sec) ----------------
TotEng   =     -3318.8335 KinEng   =       646.5440 Temp     =       299.5886 
PotEng   =     -3965.3775 E_bond   =         0.1954 E_angle  =         1.5078 
E_dihed  =         0.0000 E_impro  =         0.0000 E_vdwl   =       769.0747 
E_coul   =     27013.2360 E_long   =    -31749.3914 Press    =       462.9954 
Volume   =     10903.5771 
SHAKE stats (type/ave/delta) on step 365000
  2 0.957004 6.70827e-06
  2 104.52 0.000488753
---------------- Step   365000 ----- CPU =   2099.2905 (sec) ----------------
TotEng   =     -3309.3802 KinEng   =       614.7398 Temp     =       284.8515 
PotEng   =     -3924.1200 E_bond   =         0.0544 E_angle  =         1.1603 
E_dihed  =         0.0000 E_impro  =         0.0000 E_vdwl   =       798.8466 
E_coul   =     27025.3332 E_long   =    -31749.5145 Press    =      1201.7507 
Volume   =     10981.9272 
SHAKE stats (type/ave/delta) on step 370000
  2 0.957001 1.55246e-05
  2 104.52 0.00125523
---------------- Step   370000 ----- CPU =   2128.0881 (sec) ----------------
TotEng   =     -3304.8406 KinEng   =       650.3618 Temp     =       301.3576 
PotEng   =     -3955.2024 E_bond   =         0.3508 E_angle  =         1.0608 
E_dihed  =         0.0000 E_impro  =         0.0000 E_vdwl   =       735.7907 
E_coul   =     27058.3836 E_long   =    -31750.7882 Press    =      -466.4607 
Volume   =     11112.5060 
SHAKE stats (type/ave/delta) on step 375000
  2 0.956968 8.2094e-06
  2 104.52 0.000671944
---------------- Step   375000 ----- CPU =   2158.1152 (sec) ----------------
TotEng   =     -3206.0787 KinEng   =       673.4587 Temp     =       312.0600 
PotEng   =     -3879.5374 E_bond   =         1.1359 E_angle  =         1.1070 
E_dihed  =         0.0000 E_impro  =         0.0000 E_vdwl   =       706.3428 
E_coul   =     27162.7555 E_long   =    -31750.8786 Press    =       -83.0380 
Volume   =     10955.4414 
SHAKE stats (type/ave/delta) on step 380000
  2 0.956953 5.34208e-06
  2 104.52 0.000406922
---------------- Step   380000 ----- CPU =   2185.6100 (sec) ----------------
TotEng   =     -3281.4664 KinEng   =       635.2084 Temp     =       294.3360 
PotEng   =     -3916.6747 E_bond   =         1.9524 E_angle  =         0.7651 
E_dihed  =         0.0000 E_impro  =         0.0000 E_vdwl   =       686.2217 
E_coul   =     27140.9959 E_long   =    -31746.6099 Press    =     -1088.6017 
Volume   =     11062.3753 
SHAKE stats (type/ave/delta) on step 385000
  2 0.956994 1.04753e-05
  2 104.52 0.000687707
---------------- Step   385000 ----- CPU =   2213.3338 (sec) ----------------
TotEng   =     -3312.7413 KinEng   =       672.8156 Temp     =       311.7620 
PotEng   =     -3985.5569 E_bond   =         0.6187 E_angle  =         1.3696 
E_dihed  =         0.0000 E_impro  =         0.0000 E_vdwl   =       733.4659 
E_coul   =     27031.3398 E_long   =    -31752.3509 Press    =      -633.9159 
Volume   =     11160.9072 
SHAKE stats (type/ave/delta) on step 390000
  2 0.956989 5.08654e-06
  2 104.52 0.00046669
---------------- Step   390000 ----- CPU =   2240.8488 (sec) ----------------
TotEng   =     -3244.0532 KinEng   =       649.5516 Temp     =       300.9822 
PotEng   =     -3893.6048 E_bond   =         1.8431 E_angle  =         0.8889 
E_dihed  =         0.0000 E_impro  =         0.0000 E_vdwl   =       703.0483 
E_coul   =     27150.2046 E_long   =    -31749.5898 Press    =      -320.5665 
Volume   =     10973.4388 
SHAKE stats (type/ave/delta) on step 395000
  2 0.956899 9.51072e-06
  2 104.52 0.00123403
---------------- Step   395000 ----- CPU =   2268.5484 (sec) ----------------
TotEng   =     -3296.2541 KinEng   =       641.0823 Temp     =       297.0578 
PotEng   =     -3937.3364 E_bond   =         0.3944 E_angle  =         0.6308 
E_dihed  =         0.0000 E_impro  =         0.0000 E_vdwl   =       776.7040 
E_coul   =     27034.7775 E_long   =    -31749.8431 Press    =       814.6038 
Volume   =     10975.1733 
SHAKE stats (type/ave/delta) on step 400000
  2 0.956916 8.02993e-06
  2 104.52 0.000900535
---------------- Step   400000 ----- CPU =   2296.1852 (sec) ----------------
TotEng   =     -3265.8014 KinEng   =       664.1542 Temp     =       307.7486 
PotEng   =     -3929.9556 E_bond   =         1.6799 E_angle  =         0.2919 
E_dihed  =         0.0000 E_impro  =         0.0000 E_vdwl   =       757.8148 
E_coul   =     27058.9219 E_long   =    -31748.6641 Press    =       425.2062 
Volume   =     11008.8564 
SHAKE stats (type/ave/delta) on step 405000
  2 0.957041 1.14142e-05
  2 104.52 0.000619269
---------------- Step   405000 ----- CPU =   2325.2452 (sec) ----------------
TotEng   =     -3277.1746 KinEng   =       655.7659 Temp     =       303.8617 
PotEng   =     -3932.9405 E_bond   =         1.7922 E_angle  =         1.6897 
E_dihed  =         0.0000 E_impro  =         0.0000 E_vdwl   =       734.5745 
E_coul   =     27074.7410 E_long   =    -31745.7379 Press    =      -474.2914 
Volume   =     11357.7898 
SHAKE stats (type/ave/delta) on step 410000
  2 0.957032 6.52274e-06
  2 104.52 0.000420642
---------------- Step   410000 ----- CPU =   2354.2179 (sec) ----------------
TotEng   =     -3254.6492 KinEng   =       702.5607 Temp     =       325.5450 
PotEng   =     -3957.2100 E_bond   =         2.0066 E_angle  =         1.2709 
E_dihed  =         0.0000 E_impro  =         0.0000 E_vdwl   =       781.0451 
E_coul   =     27006.8573 E_long   =    -31748.3900 Press    =       755.1428 
Volume   =     10985.8589 
SHAKE stats (type/ave/delta) on step 415000
  2 0.957023 6.34371e-06
  2 104.52 0.000520225
---------------- Step   415000 ----- CPU =   2382.7931 (sec) ----------------
TotEng   =     -3326.2212 KinEng   =       618.1287 Temp     =       286.4218 
PotEng   =     -3944.3499 E_bond   =         1.2653 E_angle  =         3.1476 
E_dihed  =         0.0000 E_impro  =         0.0000 E_vdwl   =       690.9004 
E_coul   =     27105.9098 E_long   =    -31745.5730 Press    =     -1252.5743 
Volume   =     11148.3755 
SHAKE stats (type/ave/delta) on step 420000
  2 0.956953 5.2109e-06
  2 104.52 0.000377696
---------------- Step   420000 ----- CPU =   2411.7172 (sec) ----------------
TotEng   =     -3281.0471 KinEng   =       650.7779 Temp     =       301.5504 
PotEng   =     -3931.8249 E_bond   =         2.8795 E_angle  =         0.7590 
E_dihed  =         0.0000 E_impro  =         0.0000 E_vdwl   =       710.8392 
E_coul   =     27101.2999 E_long   =    -31747.6025 Press    =      -944.2313 
Volume   =     11113.1697 
SHAKE stats (type/ave/delta) on step 425000
  2 0.95708 8.05596e-06
  2 104.52 0.000972504
---------------- Step   425000 ----- CPU =   2440.2953 (sec) ----------------
TotEng   =     -3300.4526 KinEng   =       626.0280 Temp     =       290.0821 
PotEng   =     -3926.4806 E_bond   =         0.4837 E_angle  =         1.7176 
E_dihed  =         0.0000 E_impro  =         0.0000 E_vdwl   =       722.0213 
E_coul   =     27099.7027 E_long   =    -31750.4060 Press    =      -182.1025 
Volume   =     10991.9564 
SHAKE stats (type/ave/delta) on step 430000
  2 0.956989 6.05536e-06
  2 104.52 0.000408261
---------------- Step   430000 ----- CPU =   2468.9339 (sec) ----------------
TotEng   =     -3294.8564 KinEng   =       649.1521 Temp     =       300.7971 
PotEng   =     -3944.0085 E_bond   =         0.2873 E_angle  =         1.5318 
E_dihed  =         0.0000 E_impro  =         0.0000 E_vdwl   =       753.0072 
E_coul   =     27048.4946 E_long   =    -31747.3294 Press    =       136.4122 
Volume   =     11151.7722 
SHAKE stats (type/ave/delta) on step 435000
  2 0.957015 6.68915e-06
  2 104.52 0.000438356
---------------- Step   435000 ----- CPU =   2498.0826 (sec) ----------------
TotEng   =     -3376.8364 KinEng   =       621.8833 Temp     =       288.1616 
PotEng   =     -3998.7198 E_bond   =         4.7640 E_angle  =         1.8015 
E_dihed  =         0.0000 E_impro  =         0.0000 E_vdwl   =       764.8698 
E_coul   =     26978.5398 E_long   =    -31748.6949 Press    =       480.6350 
Volume   =     10796.8880 
SHAKE stats (type/ave/delta) on step 440000
  2 0.956974 1.18255e-05
  2 104.52 0.000785086
---------------- Step   440000 ----- CPU =   2526.9515 (sec) ----------------
TotEng   =     -3265.7219 KinEng   =       648.6195 Temp     =       300.5503 
PotEng   =     -3914.3414 E_bond   =         3.2755 E_angle  =         2.0791 
E_dihed  =         0.0000 E_impro  =         0.0000 E_vdwl   =       751.8079 
E_coul   =     27077.3598 E_long   =    -31748.8637 Press    =       331.7701 
Volume   =     10914.8349 
SHAKE stats (type/ave/delta) on step 445000
  2 0.956996 9.43911e-06
  2 104.52 0.000835131
---------------- Step   445000 ----- CPU =   2555.8993 (sec) ----------------
TotEng   =     -3248.5331 KinEng   =       671.0141 Temp     =       310.9272 
PotEng   =     -3919.5472 E_bond   =         3.1349 E_angle  =         1.8490 
E_dihed  =         0.0000 E_impro  =         0.0000 E_vdwl   =       739.9679 
E_coul   =     27084.6682 E_long   =    -31749.1671 Press    =       452.8822 
Volume   =     10830.7848 
SHAKE stats (type/ave/delta) on step 450000
  2 0.957045 4.48384e-06
  2 104.52 0.000449165
---------------- Step   450000 ----- CPU =   2584.6573 (sec) ----------------
TotEng   =     -3337.8379 KinEng   =       624.1725 Temp     =       289.2223 
PotEng   =     -3962.0104 E_bond   =         4.0587 E_angle  =         1.7114 
E_dihed  =         0.0000 E_impro  =         0.0000 E_vdwl   =       771.9055 
E_coul   =     27011.7928 E_long   =    -31751.4789 Press    =        15.7156 
Volume   =     10993.5838 
SHAKE stats (type/ave/delta) on step 455000
  2 0.957005 7.50443e-06
  2 104.52 0.000891578
---------------- Step   455000 ----- CPU =   2612.9552 (sec) ----------------
TotEng   =     -3292.7260 KinEng   =       648.4454 Temp     =       300.4696 
PotEng   =     -3941.1714 E_bond   =         2.5485 E_angle  =         1.7896 
E_dihed  =         0.0000 E_impro  =         0.0000 E_vdwl   =       724.5269 
E_coul   =     27078.7573 E_long   =    -31748.7936 Press    =      -124.3332 
Volume   =     11073.8371 
SHAKE stats (type/ave/delta) on step 460000
  2 0.957034 1.32295e-05
  2 104.52 0.00147486
---------------- Step   460000 ----- CPU =   2642.0352 (sec) ----------------
TotEng   =     -3325.0733 KinEng   =       636.9249 Temp     =       295.1314 
PotEng   =     -3961.9982 E_bond   =         0.9965 E_angle  =         2.5330 
E_dihed  =         0.0000 E_impro  =         0.0000 E_vdwl   =       716.9634 
E_coul   =     27065.8470 E_long   =    -31748.3381 Press    =      -228.5901 
Volume   =     10762.9678 
SHAKE stats (type/ave/delta) on step 465000
  2 0.957011 7.52447e-06
  2 104.52 0.000758916
---------------- Step   465000 ----- CPU =   2671.6378 (sec) ----------------
TotEng   =     -3367.0386 KinEng   =       635.9498 Temp     =       294.6795 
PotEng   =     -4002.9884 E_bond   =         0.9997 E_angle  =         1.3099 
E_dihed  =         0.0000 E_impro  =         0.0000 E_vdwl   =       806.3883 
E_coul   =     26938.9055 E_long   =    -31750.5918 Press    =       692.9098 
Volume   =     10933.0434 
SHAKE stats (type/ave/delta) on step 470000
  2 0.957016 1.64721e-05
  2 104.52 0.00162149
---------------- Step   470000 ----- CPU =   2701.4954 (sec) ----------------
TotEng   =     -3256.4927 KinEng   =       669.7736 Temp     =       310.3524 
PotEng   =     -3926.2663 E_bond   =         0.9643 E_angle  =         0.7314 
[...]
---------------- Step  2320000 ----- CPU =  13375.1073 (sec) ----------------
TotEng   =     -3271.0172 KinEng   =       664.3169 Temp     =       307.8240 
PotEng   =     -3935.3342 E_bond   =         2.4329 E_angle  =         1.9195 
E_dihed  =         0.0000 E_impro  =         0.0000 E_vdwl   =       756.8310 
E_coul   =     27051.0835 E_long   =    -31747.6009 Press    =       353.3235 
Volume   =     11057.9718 
SHAKE stats (type/ave/delta) on step 2325000
  2 0.956978 5.00669e-06
  2 104.52 0.000473029
---------------- Step  2325000 ----- CPU =  13404.8266 (sec) ----------------
TotEng   =     -3280.6596 KinEng   =       642.6906 Temp     =       297.8030 
PotEng   =     -3923.3502 E_bond   =         2.8682 E_angle  =         1.0657 
E_dihed  =         0.0000 E_impro  =         0.0000 E_vdwl   =       712.3441 
E_coul   =     27108.9311 E_long   =    -31748.5593 Press    =      -537.6927 
Volume   =     10985.5920 
SHAKE stats (type/ave/delta) on step 2330000
  2 0.957022 5.22751e-06
  2 104.52 0.000398076
---------------- Step  2330000 ----- CPU =  13434.3235 (sec) ----------------
TotEng   =     -3307.5255 KinEng   =       669.5640 Temp     =       310.2553 
PotEng   =     -3977.0895 E_bond   =         2.0415 E_angle  =         1.8719 
E_dihed  =         0.0000 E_impro  =         0.0000 E_vdwl   =       810.8369 
E_coul   =     26953.0064 E_long   =    -31744.8461 Press    =      1104.6626 
Volume   =     10979.9829 
SHAKE stats (type/ave/delta) on step 2335000
  2 0.956953 5.26058e-06
  2 104.52 0.000606985
---------------- Step  2335000 ----- CPU =  13463.9943 (sec) ----------------
TotEng   =     -3344.9870 KinEng   =       611.7543 Temp     =       283.4681 
PotEng   =     -3956.7414 E_bond   =         3.4582 E_angle  =         2.2422 
E_dihed  =         0.0000 E_impro  =         0.0000 E_vdwl   =       698.7111 
E_coul   =     27087.3944 E_long   =    -31748.5472 Press    =      -969.8239 
Volume   =     10905.2264 
SHAKE stats (type/ave/delta) on step 2340000
  2 0.957011 1.18346e-05
  2 104.52 0.000919956
---------------- Step  2340000 ----- CPU =  13493.2202 (sec) ----------------
TotEng   =     -3248.3676 KinEng   =       672.0807 Temp     =       311.4215 
PotEng   =     -3920.4483 E_bond   =         2.3012 E_angle  =         2.1483 
E_dihed  =         0.0000 E_impro  =         0.0000 E_vdwl   =       743.8747 
E_coul   =     27078.3203 E_long   =    -31747.0928 Press    =       404.2067 
Volume   =     10709.2274 
SHAKE stats (type/ave/delta) on step 2345000
  2 0.956964 5.36114e-06
  2 104.52 0.000407856
---------------- Step  2345000 ----- CPU =  13522.3646 (sec) ----------------
TotEng   =     -3269.4918 KinEng   =       674.5365 Temp     =       312.5594 
PotEng   =     -3944.0283 E_bond   =         0.5077 E_angle  =         1.2803 
E_dihed  =         0.0000 E_impro  =         0.0000 E_vdwl   =       829.3770 
E_coul   =     26976.2863 E_long   =    -31751.4796 Press    =      2005.6006 
Volume   =     10778.8610 
SHAKE stats (type/ave/delta) on step 2350000
  2 0.95699 7.81847e-06
  2 104.52 0.000705027
---------------- Step  2350000 ----- CPU =  13551.8537 (sec) ----------------
TotEng   =     -3256.4375 KinEng   =       637.9342 Temp     =       295.5990 
PotEng   =     -3894.3717 E_bond   =         1.7461 E_angle  =         1.8617 
E_dihed  =         0.0000 E_impro  =         0.0000 E_vdwl   =       679.6385 
E_coul   =     27173.1506 E_long   =    -31750.7687 Press    =      -779.5575 
Volume   =     10916.6836 
SHAKE stats (type/ave/delta) on step 2355000
  2 0.956971 5.98786e-06
  2 104.52 0.000457056
---------------- Step  2355000 ----- CPU =  13581.4673 (sec) ----------------
TotEng   =     -3264.8128 KinEng   =       653.7335 Temp     =       302.9200 
PotEng   =     -3918.5463 E_bond   =         1.8434 E_angle  =         1.1890 
E_dihed  =         0.0000 E_impro  =         0.0000 E_vdwl   =       688.5795 
E_coul   =     27136.4949 E_long   =    -31746.6531 Press    =      -781.0197 
Volume   =     10829.0074 
SHAKE stats (type/ave/delta) on step 2360000
  2 0.956943 5.27671e-06
  2 104.52 0.00060568
---------------- Step  2360000 ----- CPU =  13611.5373 (sec) ----------------
TotEng   =     -3363.5183 KinEng   =       625.3555 Temp     =       289.7705 
PotEng   =     -3988.8738 E_bond   =         0.3066 E_angle  =         1.6771 
E_dihed  =         0.0000 E_impro  =         0.0000 E_vdwl   =       769.9736 
E_coul   =     26990.3865 E_long   =    -31751.2177 Press    =       878.3641 
Volume   =     10547.9422 
SHAKE stats (type/ave/delta) on step 2365000
  2 0.956993 7.81579e-06
  2 104.52 0.000454886
---------------- Step  2365000 ----- CPU =  13640.5290 (sec) ----------------
TotEng   =     -3287.0162 KinEng   =       650.5403 Temp     =       301.4403 
PotEng   =     -3937.5565 E_bond   =         3.6146 E_angle  =         2.4481 
E_dihed  =         0.0000 E_impro  =         0.0000 E_vdwl   =       699.7831 
E_coul   =     27104.8284 E_long   =    -31748.2307 Press    =      -644.5258 
Volume   =     10963.0153 
SHAKE stats (type/ave/delta) on step 2370000
  2 0.956963 9.29828e-06
  2 104.52 0.000554292
---------------- Step  2370000 ----- CPU =  13670.8176 (sec) ----------------
TotEng   =     -3231.2024 KinEng   =       670.2321 Temp     =       310.5649 
PotEng   =     -3901.4345 E_bond   =         2.7075 E_angle  =         2.5132 
E_dihed  =         0.0000 E_impro  =         0.0000 E_vdwl   =       726.4498 
E_coul   =     27120.1318 E_long   =    -31753.2369 Press    =       338.9460 
Volume   =     10951.4715 
SHAKE stats (type/ave/delta) on step 2375000
  2 0.956933 5.21641e-06
  2 104.52 0.00062803
---------------- Step  2375000 ----- CPU =  13700.0420 (sec) ----------------
TotEng   =     -3315.3302 KinEng   =       665.8008 Temp     =       308.5116 
PotEng   =     -3981.1310 E_bond   =         2.6368 E_angle  =         3.4777 
E_dihed  =         0.0000 E_impro  =         0.0000 E_vdwl   =       717.5738 
E_coul   =     27045.1148 E_long   =    -31749.9342 Press    =      -665.7663 
Volume   =     10921.4647 
SHAKE stats (type/ave/delta) on step 2380000
  2 0.957006 7.58861e-06
  2 104.52 0.000710476
---------------- Step  2380000 ----- CPU =  13727.2885 (sec) ----------------
TotEng   =     -3313.8352 KinEng   =       629.3233 Temp     =       291.6090 
PotEng   =     -3943.1584 E_bond   =         3.1167 E_angle  =         1.7876 
E_dihed  =         0.0000 E_impro  =         0.0000 E_vdwl   =       725.9319 
E_coul   =     27078.0534 E_long   =    -31752.0481 Press    =      -255.6236 
Volume   =     11013.4594 
SHAKE stats (type/ave/delta) on step 2385000
  2 0.956982 6.30525e-06
  2 104.52 0.000582593
---------------- Step  2385000 ----- CPU =  13755.3492 (sec) ----------------
TotEng   =     -3278.1801 KinEng   =       645.7557 Temp     =       299.2233 
PotEng   =     -3923.9358 E_bond   =         0.4396 E_angle  =         1.0966 
E_dihed  =         0.0000 E_impro  =         0.0000 E_vdwl   =       770.7742 
E_coul   =     27050.9383 E_long   =    -31747.1845 Press    =      1013.8991 
Volume   =     10834.3476 
SHAKE stats (type/ave/delta) on step 2390000
  2 0.957013 4.36269e-06
  2 104.52 0.000413177
---------------- Step  2390000 ----- CPU =  13783.8178 (sec) ----------------
TotEng   =     -3264.8153 KinEng   =       646.3166 Temp     =       299.4832 
PotEng   =     -3911.1319 E_bond   =         1.6324 E_angle  =         2.7411 
E_dihed  =         0.0000 E_impro  =         0.0000 E_vdwl   =       654.4431 
E_coul   =     27178.8903 E_long   =    -31748.8388 Press    =     -1353.1043 
Volume   =     10807.8734 
SHAKE stats (type/ave/delta) on step 2395000
  2 0.957013 5.53715e-06
  2 104.52 0.000444041
---------------- Step  2395000 ----- CPU =  13812.9265 (sec) ----------------
TotEng   =     -3310.6399 KinEng   =       648.4754 Temp     =       300.4835 
PotEng   =     -3959.1154 E_bond   =         2.8918 E_angle  =         1.7053 
E_dihed  =         0.0000 E_impro  =         0.0000 E_vdwl   =       782.0259 
E_coul   =     27006.4176 E_long   =    -31752.1559 Press    =      1410.9174 
Volume   =     10513.0402 
SHAKE stats (type/ave/delta) on step 2400000
  2 0.957022 1.33058e-05
  2 104.52 0.00125622
---------------- Step  2400000 ----- CPU =  13841.2242 (sec) ----------------
TotEng   =     -3371.3907 KinEng   =       673.5050 Temp     =       312.0815 
PotEng   =     -4044.8958 E_bond   =         1.9581 E_angle  =         2.8799 
E_dihed  =         0.0000 E_impro  =         0.0000 E_vdwl   =       735.2499 
E_coul   =     26970.2644 E_long   =    -31755.2481 Press    =      -907.5418 
Volume   =     10901.2494 
SHAKE stats (type/ave/delta) on step 2405000
  2 0.957034 1.75111e-05
  2 104.52 0.00124885
---------------- Step  2405000 ----- CPU =  13870.7865 (sec) ----------------
TotEng   =     -3268.3743 KinEng   =       687.6292 Temp     =       318.6262 
PotEng   =     -3956.0036 E_bond   =         3.3439 E_angle  =         1.2164 
E_dihed  =         0.0000 E_impro  =         0.0000 E_vdwl   =       768.5875 
E_coul   =     27020.6632 E_long   =    -31749.8146 Press    =       219.4313 
Volume   =     10934.1212 
SHAKE stats (type/ave/delta) on step 2410000
  2 0.956983 1.0813e-05
  2 104.52 0.000711803
---------------- Step  2410000 ----- CPU =  13899.9302 (sec) ----------------
TotEng   =     -3334.7779 KinEng   =       610.9364 Temp     =       283.0891 
PotEng   =     -3945.7143 E_bond   =         1.5761 E_angle  =         2.4796 
E_dihed  =         0.0000 E_impro  =         0.0000 E_vdwl   =       789.7341 
E_coul   =     27009.1476 E_long   =    -31748.6518 Press    =       671.1626 
Volume   =     11061.2948 
SHAKE stats (type/ave/delta) on step 2415000
  2 0.95706 9.62124e-06
  2 104.52 0.00117556
---------------- Step  2415000 ----- CPU =  13929.1842 (sec) ----------------
TotEng   =     -3366.7202 KinEng   =       598.2462 Temp     =       277.2089 
PotEng   =     -3964.9665 E_bond   =         1.9372 E_angle  =         1.2490 
E_dihed  =         0.0000 E_impro  =         0.0000 E_vdwl   =       732.3766 
E_coul   =     27050.1199 E_long   =    -31750.6492 Press    =      -155.7131 
Volume   =     10725.5234 
SHAKE stats (type/ave/delta) on step 2420000
  2 0.957003 6.31449e-06
  2 104.52 0.000440304
---------------- Step  2420000 ----- CPU =  13959.2076 (sec) ----------------
TotEng   =     -3355.9914 KinEng   =       649.0416 Temp     =       300.7458 
PotEng   =     -4005.0330 E_bond   =         0.9903 E_angle  =         1.1520 
E_dihed  =         0.0000 E_impro  =         0.0000 E_vdwl   =       781.5173 
E_coul   =     26964.1317 E_long   =    -31752.8243 Press    =       208.0238 
Volume   =     10926.5343 
SHAKE stats (type/ave/delta) on step 2425000
  2 0.956956 5.49288e-06
  2 104.52 0.000441296
---------------- Step  2425000 ----- CPU =  13988.6120 (sec) ----------------
TotEng   =     -3255.1976 KinEng   =       620.0608 Temp     =       287.3171 
PotEng   =     -3875.2584 E_bond   =         2.1574 E_angle  =         1.8244 
E_dihed  =         0.0000 E_impro  =         0.0000 E_vdwl   =       778.6553 
E_coul   =     27091.8659 E_long   =    -31749.7613 Press    =      1150.8120 
Volume   =     10940.5929 
SHAKE stats (type/ave/delta) on step 2430000
  2 0.956961 7.96879e-06
  2 104.52 0.000515709
---------------- Step  2430000 ----- CPU =  14018.0281 (sec) ----------------
TotEng   =     -3293.1867 KinEng   =       649.0048 Temp     =       300.7288 
PotEng   =     -3942.1915 E_bond   =         2.3003 E_angle  =         1.1669 
E_dihed  =         0.0000 E_impro  =         0.0000 E_vdwl   =       700.4777 
E_coul   =     27101.4447 E_long   =    -31747.5811 Press    =     -1038.7672 
Volume   =     10960.7284 
SHAKE stats (type/ave/delta) on step 2435000
  2 0.957004 1.05589e-05
  2 104.52 0.0012373
---------------- Step  2435000 ----- CPU =  14047.3374 (sec) ----------------
TotEng   =     -3309.3434 KinEng   =       625.9210 Temp     =       290.0325 
PotEng   =     -3935.2644 E_bond   =         0.7993 E_angle  =         4.2980 
E_dihed  =         0.0000 E_impro  =         0.0000 E_vdwl   =       755.1706 
E_coul   =     27052.2155 E_long   =    -31747.7478 Press    =       627.4031 
Volume   =     10803.4934 
SHAKE stats (type/ave/delta) on step 2440000
  2 0.957042 6.61528e-06
  2 104.52 0.000566821
---------------- Step  2440000 ----- CPU =  14075.9300 (sec) ----------------
TotEng   =     -3207.9730 KinEng   =       640.8078 Temp     =       296.9306 
PotEng   =     -3848.7808 E_bond   =         2.0132 E_angle  =         1.4902 
E_dihed  =         0.0000 E_impro  =         0.0000 E_vdwl   =       713.2365 
E_coul   =     27183.3829 E_long   =    -31748.9037 Press    =       233.7798 
Volume   =     10852.7575 
SHAKE stats (type/ave/delta) on step 2445000
  2 0.956982 8.99847e-06
  2 104.52 0.000725235
---------------- Step  2445000 ----- CPU =  14107.1637 (sec) ----------------
TotEng   =     -3307.2003 KinEng   =       629.9704 Temp     =       291.9089 
PotEng   =     -3937.1707 E_bond   =         2.8496 E_angle  =         1.7217 
E_dihed  =         0.0000 E_impro  =         0.0000 E_vdwl   =       760.2339 
E_coul   =     27049.7792 E_long   =    -31751.7552 Press    =       553.7596 
Volume   =     10789.4555 
SHAKE stats (type/ave/delta) on step 2450000
  2 0.956998 6.43193e-06
  2 104.52 0.000510262
---------------- Step  2450000 ----- CPU =  14137.3982 (sec) ----------------
TotEng   =     -3239.7573 KinEng   =       678.9022 Temp     =       314.5823 
PotEng   =     -3918.6595 E_bond   =         2.9381 E_angle  =         2.6217 
E_dihed  =         0.0000 E_impro  =         0.0000 E_vdwl   =       709.0118 
E_coul   =     27111.8816 E_long   =    -31745.1127 Press    =      -502.4157 
Volume   =     10946.4306 
SHAKE stats (type/ave/delta) on step 2455000
  2 0.957039 6.84532e-06
  2 104.52 0.000464572
---------------- Step  2455000 ----- CPU =  14166.5243 (sec) ----------------
TotEng   =     -3260.5703 KinEng   =       670.1093 Temp     =       310.5080 
PotEng   =     -3930.6797 E_bond   =         3.1351 E_angle  =         1.2019 
E_dihed  =         0.0000 E_impro  =         0.0000 E_vdwl   =       770.7297 
E_coul   =     27041.1437 E_long   =    -31746.8900 Press    =       624.0967 
Volume   =     10949.0635 
SHAKE stats (type/ave/delta) on step 2460000
  2 0.957042 6.08961e-06
  2 104.52 0.00046186
---------------- Step  2460000 ----- CPU =  14196.3230 (sec) ----------------
TotEng   =     -3311.2370 KinEng   =       632.1063 Temp     =       292.8986 
PotEng   =     -3943.3433 E_bond   =         1.5815 E_angle  =         2.4067 
E_dihed  =         0.0000 E_impro  =         0.0000 E_vdwl   =       721.6331 
E_coul   =     27076.6425 E_long   =    -31745.6072 Press    =      -650.8558 
Volume   =     10935.0998 
SHAKE stats (type/ave/delta) on step 2465000
  2 0.957036 5.0378e-06
  2 104.52 0.000432768
---------------- Step  2465000 ----- CPU =  14225.9144 (sec) ----------------
TotEng   =     -3254.5840 KinEng   =       635.5923 Temp     =       294.5139 
PotEng   =     -3890.1763 E_bond   =         1.1499 E_angle  =         2.5217 
E_dihed  =         0.0000 E_impro  =         0.0000 E_vdwl   =       693.1139 
E_coul   =     27160.3415 E_long   =    -31747.3033 Press    =      -497.4007 
Volume   =     10961.9002 
SHAKE stats (type/ave/delta) on step 2470000
  2 0.956967 9.62152e-06
  2 104.52 0.000775889
---------------- Step  2470000 ----- CPU =  14257.0094 (sec) ----------------
TotEng   =     -3328.5968 KinEng   =       658.4573 Temp     =       305.1088 
PotEng   =     -3987.0541 E_bond   =         0.1682 E_angle  =         2.9707 
E_dihed  =         0.0000 E_impro  =         0.0000 E_vdwl   =       807.8880 
E_coul   =     26952.7170 E_long   =    -31750.7980 Press    =       617.9320 
Volume   =     11041.6588 
SHAKE stats (type/ave/delta) on step 2475000
  2 0.957001 4.61355e-06
  2 104.52 0.000443383
---------------- Step  2475000 ----- CPU =  14285.5572 (sec) ----------------
TotEng   =     -3263.7239 KinEng   =       668.0992 Temp     =       309.5765 
PotEng   =     -3931.8231 E_bond   =         2.5161 E_angle  =         3.3334 
E_dihed  =         0.0000 E_impro  =         0.0000 E_vdwl   =       735.7551 
E_coul   =     27075.9064 E_long   =    -31749.3341 Press    =       208.9952 
Volume   =     10838.6856 
SHAKE stats (type/ave/delta) on step 2480000
  2 0.957008 1.18765e-05
  2 104.52 0.000869029
---------------- Step  2480000 ----- CPU =  14315.2188 (sec) ----------------
TotEng   =     -3254.5803 KinEng   =       617.2558 Temp     =       286.0173 
PotEng   =     -3871.8362 E_bond   =         2.2304 E_angle  =         1.8636 
E_dihed  =         0.0000 E_impro  =         0.0000 E_vdwl   =       682.0730 
E_coul   =     27185.6008 E_long   =    -31743.6040 Press    =      -995.5131 
Volume   =     11001.0393 
SHAKE stats (type/ave/delta) on step 2485000
  2 0.956991 6.78499e-06
  2 104.52 0.000526582
---------------- Step  2485000 ----- CPU =  14345.2394 (sec) ----------------
TotEng   =     -3382.9062 KinEng   =       638.0167 Temp     =       295.6373 
PotEng   =     -4020.9229 E_bond   =         0.8023 E_angle  =         3.0719 
E_dihed  =         0.0000 E_impro  =         0.0000 E_vdwl   =       782.2179 
E_coul   =     26945.5692 E_long   =    -31752.5842 Press    =       352.9035 
Volume   =     10864.2306 
SHAKE stats (type/ave/delta) on step 2490000
  2 0.956934 1.35028e-05
  2 104.52 0.000776618
---------------- Step  2490000 ----- CPU =  14375.3822 (sec) ----------------
TotEng   =     -3251.6757 KinEng   =       644.5960 Temp     =       298.6859 
PotEng   =     -3896.2718 E_bond   =         3.2802 E_angle  =         3.6488 
E_dihed  =         0.0000 E_impro  =         0.0000 E_vdwl   =       706.4192 
E_coul   =     27137.6340 E_long   =    -31747.2540 Press    =       180.5861 
Volume   =     10735.4901 
SHAKE stats (type/ave/delta) on step 2495000
  2 0.957036 9.35685e-06
  2 104.52 0.000646733
---------------- Step  2495000 ----- CPU =  14404.8208 (sec) ----------------
TotEng   =     -3332.0446 KinEng   =       594.4835 Temp     =       275.4653 
PotEng   =     -3926.5281 E_bond   =         1.9487 E_angle  =         1.5927 
E_dihed  =         0.0000 E_impro  =         0.0000 E_vdwl   =       747.0107 
E_coul   =     27068.8706 E_long   =    -31745.9508 Press    =       220.1575 
Volume   =     10866.8148 
SHAKE stats (type/ave/delta) on step 2500000
  2 0.95706 4.89587e-06
  2 104.52 0.000408404
---------------- Step  2500000 ----- CPU =  14434.9931 (sec) ----------------
TotEng   =     -3278.5615 KinEng   =       656.5455 Temp     =       304.2229 
PotEng   =     -3935.1070 E_bond   =         3.2067 E_angle  =         2.1422 
E_dihed  =         0.0000 E_impro  =         0.0000 E_vdwl   =       816.1635 
E_coul   =     26992.9458 E_long   =    -31749.5652 Press    =      1640.0074 
Volume   =     10806.8480 
Loop time of 14435 on 8 procs for 2500000 steps with 1085 atoms

Pair  time (%) = 9493.18 (65.7651)
Bond  time (%) = 1.74049 (0.0120574)
Kspce time (%) = 2468.24 (17.099)
Neigh time (%) = 477.495 (3.3079)
Comm  time (%) = 712.063 (4.93289)
Outpt time (%) = 0.227034 (0.0015728)
Other time (%) = 1282.05 (8.88152)

FFT time (% of Kspce) = 282.988 (11.4652)
FFT Gflps 3d (1d only) = 4.84456 35.3638

Nlocal:    135.625 ave 149 max 129 min
Histogram: 3 0 1 0 2 1 0 0 0 1
Nghost:    4379.25 ave 4456 max 4324 min
Histogram: 1 1 0 2 2 1 0 0 0 1
Neighs:    52459.5 ave 57616 max 45243 min
Histogram: 1 0 2 0 0 1 0 0 1 3

Total # of neighbors = 419676
Ave neighs/atom = 386.798
Ave special neighs/atom = 2.00922
Neighbor list builds = 197103
Dangerous builds = 22421

# write_restart restart.*.lmp
write_data data.*.lmp
PPPM initialization ...
  G vector (1/distance) = 0.28608
  grid = 15 15 15
  stencil order = 5
  estimated absolute RMS force accuracy = 0.0143491
  estimated relative force accuracy = 4.32118e-05
  using double precision FFTs
  3d grid and FFT values/proc = 2744 512
