LAMMPS (11 Nov 2013)
# created by fftool

units real
boundary p p p

atom_style full
bond_style harmonic
angle_style harmonic
special_bonds lj/coul 0.0 0.0 0.5

read_data data.1.lmp
  1 = max bonds/atom
  6 = max angles/atom
  orthogonal box = (-11.1396 -11.1396 -11.1396) to (11.1396 11.1396 11.1396)
  2 by 2 by 2 MPI processor grid
  1085 atoms
  1085 velocities
  724 bonds
  366 angles
  4 = max # of 1-2 neighbors
  3 = max # of 1-3 neighbors
  3 = max # of 1-4 neighbors
  4 = max # of special neighbors
# read_restart restart.*.lmp
# reset_timestep 0

pair_style hybrid lj/cut/coul/long 10.0 10.0 lj/cut/coul/long/soft 10.0 10.0
pair_modify tail no
kspace_style pppm 1.0e-4

pair_coeff    1    1  lj/cut/coul/long    0.0660   3.5000  # C4H C4H
pair_coeff    1    2  lj/cut/coul/long    0.0445   2.9580  # C4H H
pair_coeff    2    2  lj/cut/coul/long    0.0300   2.5000  # H H
pair_coeff    3    3  lj/cut/coul/long    0.0000   1.0000  # Hw Hw
pair_coeff    3    4  lj/cut/coul/long    0.0000   1.0000  # Hw Ow
pair_coeff    4    4  lj/cut/coul/long    0.1554   3.1655  # Ow Ow

pair_coeff    1    3  lj/cut/coul/long/soft    0.0000   1.0000  1.0  # C4H Hw
pair_coeff    1    4  lj/cut/coul/long/soft    0.1013   3.3286  1.0  # C4H Ow
pair_coeff    2    3  lj/cut/coul/long/soft    0.0000   1.0000  1.0  # H Hw
pair_coeff    2    4  lj/cut/coul/long/soft    0.0683   2.8131  1.0  # H Ow

variable nsteps equal 5000000
variable nprint equal ${nsteps}/500
variable nprint equal 5000000/500
variable ndump equal ${nsteps}/100
variable ndump equal 5000000/100
# variable nrestart equal ${nsteps}/10

variable temp equal 300.0
variable press equal 1.0

neighbor 2.0 bin

timestep 2.0

# velocity all create ${temp} 12345

thermo_style multi
thermo ${nprint}
thermo 10000

fix fSHAKE all shake 0.0001 20 ${nprint} b 2 a 2
fix fSHAKE all shake 0.0001 20 10000 b 2 a 2
  0 = # of size 2 clusters
  0 = # of size 3 clusters
  0 = # of size 4 clusters
  360 = # of frozen angles

fix fNPT all npt temp ${temp} ${temp} 100 iso ${press} ${press} 500
fix fNPT all npt temp 300 ${temp} 100 iso ${press} ${press} 500
fix fNPT all npt temp 300 300 100 iso ${press} ${press} 500
fix fNPT all npt temp 300 300 100 iso 1 ${press} 500
fix fNPT all npt temp 300 300 100 iso 1 1 500

run 100000
PPPM initialization ...
  G vector (1/distance) = 0.267272
  grid = 12 12 12
  stencil order = 5
  estimated absolute RMS force accuracy = 0.0263092
  estimated relative force accuracy = 7.92294e-05
  using double precision FFTs
  3d grid and FFT values/proc = 2197 288
SHAKE stats (type/ave/delta) on step 0
  2 0.999993 1.22521e-06
  2 109.47 0.000103145
Memory usage per processor = 6.44577 Mbytes
---------------- Step        0 ----- CPU =      0.0000 (sec) ----------------
TotEng   =     -3354.6209 KinEng   =       670.7375 Temp     =       310.7991 
PotEng   =     -4025.3584 E_bond   =         2.8923 E_angle  =         1.0726 
E_dihed  =         0.0000 E_impro  =         0.0000 E_vdwl   =       861.4219 
E_coul   =     14545.2787 E_long   =    -19436.0239 Press    =      1463.1182 
Volume   =     11058.5592 
SHAKE stats (type/ave/delta) on step 10000
  2 0.999952 1.25695e-05
  2 109.47 0.000902344
---------------- Step    10000 ----- CPU =     26.3906 (sec) ----------------
TotEng   =     -3316.2246 KinEng   =       657.1277 Temp     =       304.4927 
PotEng   =     -3973.3522 E_bond   =         1.0426 E_angle  =         0.7359 
E_dihed  =         0.0000 E_impro  =         0.0000 E_vdwl   =       768.5881 
E_coul   =     14690.1389 E_long   =    -19433.8578 Press    =       107.3809 
Volume   =     11038.7114 
SHAKE stats (type/ave/delta) on step 20000
  2 0.999958 6.80348e-06
  2 109.47 0.00080753
---------------- Step    20000 ----- CPU =     52.4458 (sec) ----------------
TotEng   =     -3416.1441 KinEng   =       640.2414 Temp     =       296.6681 
PotEng   =     -4056.3855 E_bond   =         0.9640 E_angle  =         1.0114 
E_dihed  =         0.0000 E_impro  =         0.0000 E_vdwl   =       809.4091 
E_coul   =     14567.5600 E_long   =    -19435.3300 Press    =       539.9669 
Volume   =     10741.8712 
SHAKE stats (type/ave/delta) on step 30000
  2 0.999887 7.58373e-06
  2 109.47 0.000746316
---------------- Step    30000 ----- CPU =     78.0832 (sec) ----------------
TotEng   =     -3300.3052 KinEng   =       669.5338 Temp     =       310.2413 
PotEng   =     -3969.8390 E_bond   =         2.5694 E_angle  =         1.9251 
E_dihed  =         0.0000 E_impro  =         0.0000 E_vdwl   =       752.5996 
E_coul   =     14708.7289 E_long   =    -19435.6620 Press    =        96.4523 
Volume   =     10933.3961 
SHAKE stats (type/ave/delta) on step 40000
  2 1.0001 5.26967e-06
  2 109.47 0.000459023
---------------- Step    40000 ----- CPU =    104.1712 (sec) ----------------
TotEng   =     -3398.4593 KinEng   =       658.1058 Temp     =       304.9459 
PotEng   =     -4056.5651 E_bond   =         1.7160 E_angle  =         0.7025 
E_dihed  =         0.0000 E_impro  =         0.0000 E_vdwl   =       755.1664 
E_coul   =     14623.3429 E_long   =    -19437.4929 Press    =      -686.2822 
Volume   =     10828.1166 
SHAKE stats (type/ave/delta) on step 50000
  2 0.999896 7.69933e-06
  2 109.47 0.000896496
---------------- Step    50000 ----- CPU =    131.9413 (sec) ----------------
TotEng   =     -3315.0727 KinEng   =       655.1087 Temp     =       303.5572 
PotEng   =     -3970.1814 E_bond   =         6.5972 E_angle  =         0.7128 
E_dihed  =         0.0000 E_impro  =         0.0000 E_vdwl   =       800.3773 
E_coul   =     14658.5840 E_long   =    -19436.4526 Press    =       494.7306 
Volume   =     10985.6988 
SHAKE stats (type/ave/delta) on step 60000
  2 1.00002 6.18436e-06
  2 109.47 0.000444986
---------------- Step    60000 ----- CPU =    157.3171 (sec) ----------------
TotEng   =     -3306.5319 KinEng   =       674.5996 Temp     =       312.5887 
PotEng   =     -3981.1315 E_bond   =         1.9240 E_angle  =         4.2571 
E_dihed  =         0.0000 E_impro  =         0.0000 E_vdwl   =       713.6574 
E_coul   =     14732.1423 E_long   =    -19433.1124 Press    =      -873.2203 
Volume   =     10841.9809 
SHAKE stats (type/ave/delta) on step 70000
  2 1.00011 5.21557e-06
  2 109.47 0.000391828
---------------- Step    70000 ----- CPU =    183.1912 (sec) ----------------
TotEng   =     -3310.1462 KinEng   =       660.1844 Temp     =       305.9091 
PotEng   =     -3970.3306 E_bond   =         1.7258 E_angle  =         1.5494 
E_dihed  =         0.0000 E_impro  =         0.0000 E_vdwl   =       790.3305 
E_coul   =     14671.0287 E_long   =    -19434.9649 Press    =       507.4618 
Volume   =     10945.8984 
SHAKE stats (type/ave/delta) on step 80000
  2 0.999917 5.1538e-06
  2 109.47 0.000440427
---------------- Step    80000 ----- CPU =    209.2704 (sec) ----------------
TotEng   =     -3385.9497 KinEng   =       619.5800 Temp     =       287.0942 
PotEng   =     -4005.5296 E_bond   =         4.7686 E_angle  =         2.9958 
E_dihed  =         0.0000 E_impro  =         0.0000 E_vdwl   =       822.8044 
E_coul   =     14600.5179 E_long   =    -19436.6164 Press    =      1170.3307 
Volume   =     10857.1199 
SHAKE stats (type/ave/delta) on step 90000
  2 1.00019 4.30648e-06
  2 109.47 0.000389732
---------------- Step    90000 ----- CPU =    235.1960 (sec) ----------------
TotEng   =     -3387.3927 KinEng   =       652.6503 Temp     =       302.4180 
PotEng   =     -4040.0431 E_bond   =         1.5728 E_angle  =         4.9333 
E_dihed  =         0.0000 E_impro  =         0.0000 E_vdwl   =       789.9788 
E_coul   =     14599.7608 E_long   =    -19436.2888 Press    =      -329.7563 
Volume   =     11086.5467 
SHAKE stats (type/ave/delta) on step 100000
  2 1 6.12225e-06
  2 109.47 0.000566329
---------------- Step   100000 ----- CPU =    261.1593 (sec) ----------------
TotEng   =     -3318.2616 KinEng   =       645.3885 Temp     =       299.0532 
PotEng   =     -3963.6502 E_bond   =         2.9507 E_angle  =         2.1631 
E_dihed  =         0.0000 E_impro  =         0.0000 E_vdwl   =       742.0218 
E_coul   =     14725.1490 E_long   =    -19435.9347 Press    =      -473.3443 
Volume   =     11097.1772 
Loop time of 261.159 on 8 procs for 100000 steps with 1085 atoms

Pair  time (%) = 132.787 (50.845)
Bond  time (%) = 0.0687424 (0.026322)
Kspce time (%) = 46.6667 (17.8691)
Neigh time (%) = 19.1674 (7.33933)
Comm  time (%) = 27.314 (10.4588)
Outpt time (%) = 0.000585586 (0.000224225)
Other time (%) = 35.1554 (13.4613)

FFT time (% of Kspce) = 6.37506 (13.6608)
FFT Gflps 3d (1d only) = 4.0413 52.7214

Nlocal:    135.625 ave 141 max 132 min
Histogram: 1 2 1 1 0 1 0 0 1 1
Nghost:    4085.25 ave 4107 max 4060 min
Histogram: 1 0 0 0 2 3 0 1 0 1
Neighs:    47916.8 ave 52831 max 43276 min
Histogram: 2 0 1 0 0 0 3 1 0 1

Total # of neighbors = 383334
Ave neighs/atom = 353.303
Ave special neighs/atom = 2.00922
Neighbor list builds = 8223
Dangerous builds = 1215

reset_timestep 0

variable lambda equal ramp(1.0,0.0)
variable lam13 equal v_lambda
variable lam14 equal v_lambda
variable lam23 equal v_lambda
variable lam24 equal v_lambda

fix fADAPT all adapt 250000   pair lj/cut/coul/long/soft lambda 1 3 v_lam13   pair lj/cut/coul/long/soft lambda 1 4 v_lam14   pair lj/cut/coul/long/soft lambda 2 3 v_lam23   pair lj/cut/coul/long/soft lambda 2 4 v_lam24   after yes

variable dlambda equal -0.05
variable dlam13 equal v_dlambda
variable dlam14 equal v_dlambda
variable dlam23 equal v_dlambda
variable dlam24 equal v_dlambda

compute cFEP all fep ${temp}   pair lj/cut/coul/long/soft lambda 1 3 v_dlam13   pair lj/cut/coul/long/soft lambda 1 4 v_dlam14   pair lj/cut/coul/long/soft lambda 2 3 v_dlam23   pair lj/cut/coul/long/soft lambda 2 4 v_dlam24
compute cFEP all fep 300   pair lj/cut/coul/long/soft lambda 1 3 v_dlam13   pair lj/cut/coul/long/soft lambda 1 4 v_dlam14   pair lj/cut/coul/long/soft lambda 2 3 v_dlam23   pair lj/cut/coul/long/soft lambda 2 4 v_dlam24

fix fFEP all ave/time 25 8000 250000 c_cFEP[1] c_cFEP[2] file fep10.lmp

# compute cRDF all rdf 100 1 1
# fix fRDF all ave/time 20 100 ${nsteps} c_cRDF file rdf.lammps mode vector

compute cMSD all msd
fix fMSD all ave/time 1 1 ${ndump} c_cMSD[1] c_cMSD[2] c_cMSD[3] c_cMSD[4] file msd.lammps
fix fMSD all ave/time 1 1 50000 c_cMSD[1] c_cMSD[2] c_cMSD[3] c_cMSD[4] file msd.lammps

dump dCONF all custom ${ndump} dump.lammpstrj id mol type element x y z ix iy iz
dump dCONF all custom 50000 dump.lammpstrj id mol type element x y z ix iy iz
dump_modify dCONF element C H H O

# restart ${nrestart} restart.*.lmp

run ${nsteps}
run 5000000
PPPM initialization ...
  G vector (1/distance) = 0.267174
  grid = 12 12 12
  stencil order = 5
  estimated absolute RMS force accuracy = 0.026401
  estimated relative force accuracy = 7.95059e-05
  using double precision FFTs
  3d grid and FFT values/proc = 2197 288
FEP settings ...
  temperature = 300.000000
  tail no
  lj/cut/coul/long/soft lambda 1-1 3-3
  lj/cut/coul/long/soft lambda 1-1 4-4
  lj/cut/coul/long/soft lambda 2-2 3-3
  lj/cut/coul/long/soft lambda 2-2 4-4
SHAKE stats (type/ave/delta) on step 0
  2 1 6.12225e-06
  2 109.47 0.000566329
Memory usage per processor = 7.60669 Mbytes
---------------- Step        0 ----- CPU =      0.0000 (sec) ----------------
TotEng   =     -3318.2625 KinEng   =       645.3885 Temp     =       299.0532 
PotEng   =     -3963.6511 E_bond   =         2.9507 E_angle  =         2.1631 
E_dihed  =         0.0000 E_impro  =         0.0000 E_vdwl   =       742.0218 
E_coul   =     14718.0470 E_long   =    -19428.8336 Press    =      -474.0425 
Volume   =     11097.1772 
SHAKE stats (type/ave/delta) on step 10000
  2 1.00008 8.54257e-06
  2 109.47 0.000836698
---------------- Step    10000 ----- CPU =     25.4793 (sec) ----------------
TotEng   =     -3321.7988 KinEng   =       630.8838 Temp     =       292.3321 
PotEng   =     -3952.6825 E_bond   =         1.8024 E_angle  =         2.4038 
E_dihed  =         0.0000 E_impro  =         0.0000 E_vdwl   =       801.8742 
E_coul   =     14670.0276 E_long   =    -19428.7906 Press    =      1303.8734 
Volume   =     10698.4005 
SHAKE stats (type/ave/delta) on step 20000
  2 0.999973 4.28516e-06
  2 109.47 0.000402505
---------------- Step    20000 ----- CPU =     50.8654 (sec) ----------------
TotEng   =     -3319.7387 KinEng   =       652.1857 Temp     =       302.2027 
PotEng   =     -3971.9244 E_bond   =         1.8658 E_angle  =         3.4681 
E_dihed  =         0.0000 E_impro  =         0.0000 E_vdwl   =       719.3294 
E_coul   =     14732.7461 E_long   =    -19429.3339 Press    =      -888.8459 
Volume   =     11003.6966 
SHAKE stats (type/ave/delta) on step 30000
  2 0.999958 1.30852e-05
  2 109.47 0.00111621
---------------- Step    30000 ----- CPU =     76.5836 (sec) ----------------
TotEng   =     -3299.1417 KinEng   =       659.6556 Temp     =       305.6641 
PotEng   =     -3958.7973 E_bond   =         0.8708 E_angle  =         3.2186 
E_dihed  =         0.0000 E_impro  =         0.0000 E_vdwl   =       765.2293 
E_coul   =     14700.5411 E_long   =    -19428.6571 Press    =       194.0558 
Volume   =     10920.3821 
SHAKE stats (type/ave/delta) on step 40000
  2 1.00002 6.76612e-06
  2 109.47 0.000613986
---------------- Step    40000 ----- CPU =    102.3737 (sec) ----------------
TotEng   =     -3396.5577 KinEng   =       630.3068 Temp     =       292.0647 
PotEng   =     -4026.8645 E_bond   =         1.3462 E_angle  =         2.1776 
E_dihed  =         0.0000 E_impro  =         0.0000 E_vdwl   =       739.0338 
E_coul   =     14658.3180 E_long   =    -19427.7401 Press    =     -1001.6681 
Volume   =     11108.7724 
SHAKE stats (type/ave/delta) on step 50000
  2 1.00002 6.0384e-06
  2 109.47 0.00061505
---------------- Step    50000 ----- CPU =    128.1391 (sec) ----------------
TotEng   =     -3318.7344 KinEng   =       677.1894 Temp     =       313.7887 
PotEng   =     -3995.9238 E_bond   =         0.7215 E_angle  =         1.0183 
E_dihed  =         0.0000 E_impro  =         0.0000 E_vdwl   =       818.8380 
E_coul   =     14611.8750 E_long   =    -19428.3767 Press    =      1429.1920 
Volume   =     10845.2465 
SHAKE stats (type/ave/delta) on step 60000
  2 1.00001 4.882e-06
  2 109.47 0.000425563
---------------- Step    60000 ----- CPU =    156.2142 (sec) ----------------
TotEng   =     -3300.4247 KinEng   =       660.8344 Temp     =       306.2103 
PotEng   =     -3961.2592 E_bond   =         3.2626 E_angle  =         1.0802 
E_dihed  =         0.0000 E_impro  =         0.0000 E_vdwl   =       775.1779 
E_coul   =     14687.2278 E_long   =    -19428.0076 Press    =       204.0420 
Volume   =     10965.4132 
SHAKE stats (type/ave/delta) on step 70000
  2 0.999867 7.06776e-06
  2 109.47 0.000620075
---------------- Step    70000 ----- CPU =    186.4459 (sec) ----------------
TotEng   =     -3337.4931 KinEng   =       617.8642 Temp     =       286.2992 
PotEng   =     -3955.3573 E_bond   =         1.5585 E_angle  =         1.4521 
E_dihed  =         0.0000 E_impro  =         0.0000 E_vdwl   =       775.2798 
E_coul   =     14694.0220 E_long   =    -19427.6697 Press    =       216.3390 
Volume   =     11026.3988 
SHAKE stats (type/ave/delta) on step 80000
  2 0.999911 6.7584e-06
  2 109.47 0.000680924
---------------- Step    80000 ----- CPU =    216.8388 (sec) ----------------
TotEng   =     -3393.6466 KinEng   =       627.1818 Temp     =       290.6167 
PotEng   =     -4020.8284 E_bond   =         3.0602 E_angle  =         1.4749 
E_dihed  =         0.0000 E_impro  =         0.0000 E_vdwl   =       715.7424 
E_coul   =     14688.8670 E_long   =    -19429.9730 Press    =     -1308.2752 
Volume   =     10791.1868 
SHAKE stats (type/ave/delta) on step 90000
  2 0.999982 4.20328e-06
  2 109.47 0.000460647
---------------- Step    90000 ----- CPU =    245.9525 (sec) ----------------
TotEng   =     -3323.7881 KinEng   =       656.9672 Temp     =       304.4184 
PotEng   =     -3980.7553 E_bond   =         2.0443 E_angle  =         1.0432 
E_dihed  =         0.0000 E_impro  =         0.0000 E_vdwl   =       739.0402 
E_coul   =     14700.9223 E_long   =    -19423.8053 Press    =      -619.1785 
Volume   =     10956.2974 
SHAKE stats (type/ave/delta) on step 100000
  2 1 4.24101e-06
  2 109.47 0.000348
---------------- Step   100000 ----- CPU =    273.8282 (sec) ----------------
TotEng   =     -3315.1079 KinEng   =       640.6290 Temp     =       296.8477 
PotEng   =     -3955.7369 E_bond   =         2.1261 E_angle  =         2.4590 
E_dihed  =         0.0000 E_impro  =         0.0000 E_vdwl   =       730.6994 
E_coul   =     14740.1839 E_long   =    -19431.2052 Press    =      -750.4691 
Volume   =     10966.8349 
SHAKE stats (type/ave/delta) on step 110000
  2 0.999999 1.53956e-05
  2 109.47 0.00155146
---------------- Step   110000 ----- CPU =    301.3398 (sec) ----------------
TotEng   =     -3377.4099 KinEng   =       638.1949 Temp     =       295.7198 
PotEng   =     -4015.6048 E_bond   =         1.9085 E_angle  =         0.5590 
E_dihed  =         0.0000 E_impro  =         0.0000 E_vdwl   =       746.3679 
E_coul   =     14665.8535 E_long   =    -19430.2939 Press    =      -401.5115 
Volume   =     10849.0198 
SHAKE stats (type/ave/delta) on step 120000
  2 1.0001 3.35862e-06
  2 109.47 0.000391004
---------------- Step   120000 ----- CPU =    329.1404 (sec) ----------------
TotEng   =     -3356.5179 KinEng   =       657.2428 Temp     =       304.5461 
PotEng   =     -4013.7607 E_bond   =         1.1616 E_angle  =         0.6770 
E_dihed  =         0.0000 E_impro  =         0.0000 E_vdwl   =       799.3960 
E_coul   =     14613.5445 E_long   =    -19428.5399 Press    =       746.2462 
Volume   =     10727.5591 
SHAKE stats (type/ave/delta) on step 130000
  2 0.999848 5.91825e-06
  2 109.47 0.000488442
---------------- Step   130000 ----- CPU =    356.8298 (sec) ----------------
TotEng   =     -3411.4433 KinEng   =       645.0907 Temp     =       298.9151 
PotEng   =     -4056.5340 E_bond   =         0.7142 E_angle  =         0.4324 
E_dihed  =         0.0000 E_impro  =         0.0000 E_vdwl   =       846.9969 
E_coul   =     14524.2478 E_long   =    -19428.9253 Press    =      1074.0263 
Volume   =     10850.8588 
SHAKE stats (type/ave/delta) on step 140000
  2 0.999904 8.30308e-06
  2 109.47 0.00114849
---------------- Step   140000 ----- CPU =    384.2898 (sec) ----------------
TotEng   =     -3333.3611 KinEng   =       654.5712 Temp     =       303.3081 
PotEng   =     -3987.9323 E_bond   =         1.8117 E_angle  =         1.5644 
E_dihed  =         0.0000 E_impro  =         0.0000 E_vdwl   =       781.5657 
E_coul   =     14654.2784 E_long   =    -19427.1524 Press    =       415.7711 
Volume   =     10907.1941 
SHAKE stats (type/ave/delta) on step 150000
  2 0.999963 7.25298e-06
  2 109.47 0.000493942
---------------- Step   150000 ----- CPU =    411.7498 (sec) ----------------
TotEng   =     -3353.3346 KinEng   =       606.4302 Temp     =       281.0010 
PotEng   =     -3959.7648 E_bond   =         0.6358 E_angle  =         1.1454 
E_dihed  =         0.0000 E_impro  =         0.0000 E_vdwl   =       732.3537 
E_coul   =     14734.9228 E_long   =    -19428.8225 Press    =      -479.5402 
Volume   =     10855.2708 
SHAKE stats (type/ave/delta) on step 160000
  2 0.999921 1.02866e-05
  2 109.47 0.00104076
---------------- Step   160000 ----- CPU =    439.7944 (sec) ----------------
TotEng   =     -3279.0509 KinEng   =       661.9103 Temp     =       306.7088 
PotEng   =     -3940.9613 E_bond   =         0.4260 E_angle  =         1.8205 
E_dihed  =         0.0000 E_impro  =         0.0000 E_vdwl   =       762.3929 
E_coul   =     14722.4737 E_long   =    -19428.0744 Press    =      -154.1010 
Volume   =     11229.9140 
SHAKE stats (type/ave/delta) on step 170000
  2 1.00001 5.54694e-06
  2 109.47 0.000520339
---------------- Step   170000 ----- CPU =    469.3598 (sec) ----------------
TotEng   =     -3400.5257 KinEng   =       603.5852 Temp     =       279.6828 
PotEng   =     -4004.1110 E_bond   =         0.9986 E_angle  =         1.9087 
E_dihed  =         0.0000 E_impro  =         0.0000 E_vdwl   =       764.4220 
E_coul   =     14658.0229 E_long   =    -19429.4631 Press    =      -397.9789 
Volume   =     11124.6406 
SHAKE stats (type/ave/delta) on step 180000
  2 1.00015 3.97249e-06
  2 109.47 0.000383916
---------------- Step   180000 ----- CPU =    497.8678 (sec) ----------------
TotEng   =     -3320.5070 KinEng   =       662.3204 Temp     =       306.8989 
PotEng   =     -3982.8274 E_bond   =         1.0780 E_angle  =         2.2663 
E_dihed  =         0.0000 E_impro  =         0.0000 E_vdwl   =       806.1459 
E_coul   =     14637.0909 E_long   =    -19429.4086 Press    =       820.8385 
Volume   =     10999.1054 
SHAKE stats (type/ave/delta) on step 190000
  2 0.999921 6.93357e-06
  2 109.47 0.000473174
---------------- Step   190000 ----- CPU =    527.0461 (sec) ----------------
TotEng   =     -3383.7402 KinEng   =       633.4985 Temp     =       293.5437 
PotEng   =     -4017.2387 E_bond   =         0.4145 E_angle  =         1.3787 
E_dihed  =         0.0000 E_impro  =         0.0000 E_vdwl   =       736.1236 
E_coul   =     14673.0605 E_long   =    -19428.2161 Press    =     -1036.1104 
Volume   =     11030.1903 
SHAKE stats (type/ave/delta) on step 200000
  2 0.999898 5.17284e-06
  2 109.47 0.000420422
---------------- Step   200000 ----- CPU =    556.3667 (sec) ----------------
TotEng   =     -3388.4804 KinEng   =       646.6775 Temp     =       299.6504 
PotEng   =     -4035.1579 E_bond   =         1.4807 E_angle  =         1.6867 
E_dihed  =         0.0000 E_impro  =         0.0000 E_vdwl   =       823.3556 
E_coul   =     14567.9942 E_long   =    -19429.6750 Press    =       486.1961 
Volume   =     10976.7492 
SHAKE stats (type/ave/delta) on step 210000
  2 1.00004 4.25374e-06
  2 109.47 0.000359659
---------------- Step   210000 ----- CPU =    584.5332 (sec) ----------------
TotEng   =     -3318.0380 KinEng   =       643.6889 Temp     =       298.2656 
PotEng   =     -3961.7269 E_bond   =         1.8909 E_angle  =         0.6777 
E_dihed  =         0.0000 E_impro  =         0.0000 E_vdwl   =       728.0728 
E_coul   =     14736.5693 E_long   =    -19428.9375 Press    =      -392.2694 
Volume   =     10846.8447 
SHAKE stats (type/ave/delta) on step 220000
  2 1.00006 7.87146e-06
  2 109.47 0.000759111
---------------- Step   220000 ----- CPU =    612.5801 (sec) ----------------
TotEng   =     -3331.9868 KinEng   =       648.2579 Temp     =       300.3827 
PotEng   =     -3980.2447 E_bond   =         0.1374 E_angle  =         1.8765 
E_dihed  =         0.0000 E_impro  =         0.0000 E_vdwl   =       723.2621 
E_coul   =     14722.6749 E_long   =    -19428.1956 Press    =      -899.1194 
Volume   =     10982.0603 
SHAKE stats (type/ave/delta) on step 230000
  2 0.999935 8.39923e-06
  2 109.47 0.000648058
---------------- Step   230000 ----- CPU =    640.5057 (sec) ----------------
TotEng   =     -3357.5732 KinEng   =       631.1478 Temp     =       292.4544 
PotEng   =     -3988.7210 E_bond   =         0.5216 E_angle  =         2.2493 
E_dihed  =         0.0000 E_impro  =         0.0000 E_vdwl   =       778.0320 
E_coul   =     14658.5081 E_long   =    -19428.0320 Press    =       319.9188 
Volume   =     10824.7495 
SHAKE stats (type/ave/delta) on step 240000
  2 0.999815 1.38121e-05
  2 109.47 0.0010237
---------------- Step   240000 ----- CPU =    668.3438 (sec) ----------------
TotEng   =     -3353.4457 KinEng   =       650.1227 Temp     =       301.2468 
PotEng   =     -4003.5684 E_bond   =         1.6882 E_angle  =         1.1669 
E_dihed  =         0.0000 E_impro  =         0.0000 E_vdwl   =       812.5000 
E_coul   =     14608.6318 E_long   =    -19427.5552 Press    =       444.9364 
Volume   =     10954.7320 
SHAKE stats (type/ave/delta) on step 250000
  2 0.999938 8.87327e-06
  2 109.47 0.000839248
---------------- Step   250000 ----- CPU =    696.0493 (sec) ----------------
TotEng   =     -3323.7099 KinEng   =       624.5309 Temp     =       289.3883 
PotEng   =     -3948.2408 E_bond   =         0.4763 E_angle  =         1.9687 
E_dihed  =         0.0000 E_impro  =         0.0000 E_vdwl   =       790.0360 
E_coul   =     14686.9937 E_long   =    -19427.7155 Press    =       627.8250 
Volume   =     11076.7630 
SHAKE stats (type/ave/delta) on step 260000
  2 0.99985 4.77708e-06
  2 109.47 0.000447226
---------------- Step   260000 ----- CPU =    721.7508 (sec) ----------------
TotEng   =     -3316.1205 KinEng   =       639.6134 Temp     =       296.3771 
PotEng   =     -3955.7340 E_bond   =         1.0374 E_angle  =         2.3162 
E_dihed  =         0.0000 E_impro  =         0.0000 E_vdwl   =       760.4904 
E_coul   =     14707.6822 E_long   =    -19427.2603 Press    =       141.9298 
Volume   =     11026.0390 
SHAKE stats (type/ave/delta) on step 270000
  2 1.00003 5.3833e-06
  2 109.47 0.000431644
---------------- Step   270000 ----- CPU =    747.5055 (sec) ----------------
TotEng   =     -3307.8567 KinEng   =       641.6388 Temp     =       297.3156 
PotEng   =     -3949.4955 E_bond   =         0.4313 E_angle  =         0.7047 
E_dihed  =         0.0000 E_impro  =         0.0000 E_vdwl   =       720.8125 
E_coul   =     14755.7004 E_long   =    -19427.1444 Press    =      -364.0056 
Volume   =     10775.5558 
SHAKE stats (type/ave/delta) on step 280000
  2 0.999907 4.61985e-06
  2 109.47 0.000500388
---------------- Step   280000 ----- CPU =    773.0169 (sec) ----------------
TotEng   =     -3296.4452 KinEng   =       667.2807 Temp     =       309.1973 
PotEng   =     -3963.7259 E_bond   =         3.2818 E_angle  =         0.9533 
E_dihed  =         0.0000 E_impro  =         0.0000 E_vdwl   =       721.9494 
E_coul   =     14738.8019 E_long   =    -19428.7123 Press    =     -1005.4750 
Volume   =     11098.5313 
SHAKE stats (type/ave/delta) on step 290000
  2 1.00002 3.83876e-06
  2 109.47 0.000343095
---------------- Step   290000 ----- CPU =    799.3673 (sec) ----------------
TotEng   =     -3297.0856 KinEng   =       666.6246 Temp     =       308.8933 
PotEng   =     -3963.7102 E_bond   =         1.5802 E_angle  =         1.2186 
E_dihed  =         0.0000 E_impro  =         0.0000 E_vdwl   =       769.7112 
E_coul   =     14692.4896 E_long   =    -19428.7098 Press    =       332.4997 
Volume   =     10940.2563 
SHAKE stats (type/ave/delta) on step 300000
  2 0.999998 3.78004e-06
  2 109.47 0.000364027
---------------- Step   300000 ----- CPU =    827.0572 (sec) ----------------
TotEng   =     -3385.1139 KinEng   =       650.9405 Temp     =       301.6258 
PotEng   =     -4036.0544 E_bond   =         1.3334 E_angle  =         1.1323 
E_dihed  =         0.0000 E_impro  =         0.0000 E_vdwl   =       794.3630 
E_coul   =     14597.8559 E_long   =    -19430.7390 Press    =       504.7151 
Volume   =     10876.1604 
SHAKE stats (type/ave/delta) on step 310000
  2 1.00005 5.79054e-06
  2 109.47 0.000505729
---------------- Step   310000 ----- CPU =    854.7689 (sec) ----------------
TotEng   =     -3337.5362 KinEng   =       655.2975 Temp     =       303.6447 
PotEng   =     -3992.8337 E_bond   =         1.1825 E_angle  =         1.4146 
E_dihed  =         0.0000 E_impro  =         0.0000 E_vdwl   =       818.8464 
E_coul   =     14612.7447 E_long   =    -19427.0219 Press    =       858.7297 
Volume   =     11133.9254 
SHAKE stats (type/ave/delta) on step 320000
  2 0.999845 5.12664e-06
  2 109.47 0.000579016
---------------- Step   320000 ----- CPU =    882.5286 (sec) ----------------
TotEng   =     -3353.3114 KinEng   =       665.9302 Temp     =       308.5715 
PotEng   =     -4019.2416 E_bond   =         0.4670 E_angle  =         4.3312 
E_dihed  =         0.0000 E_impro  =         0.0000 E_vdwl   =       731.4252 
E_coul   =     14673.2797 E_long   =    -19428.7448 Press    =      -827.2268 
Volume   =     10939.1069 
SHAKE stats (type/ave/delta) on step 330000
  2 1.00005 1.29055e-05
  2 109.47 0.00124538
---------------- Step   330000 ----- CPU =    910.6409 (sec) ----------------
TotEng   =     -3413.2368 KinEng   =       637.6121 Temp     =       295.4498 
PotEng   =     -4050.8489 E_bond   =         2.1114 E_angle  =         1.0055 
E_dihed  =         0.0000 E_impro  =         0.0000 E_vdwl   =       779.9700 
E_coul   =     14594.7755 E_long   =    -19428.7113 Press    =        69.1435 
Volume   =     10773.1247 
SHAKE stats (type/ave/delta) on step 340000
  2 1.00004 9.11493e-06
  2 109.47 0.000619485
---------------- Step   340000 ----- CPU =    939.7343 (sec) ----------------
TotEng   =     -3343.7698 KinEng   =       638.4075 Temp     =       295.8184 
PotEng   =     -3982.1774 E_bond   =         3.4392 E_angle  =         1.2300 
E_dihed  =         0.0000 E_impro  =         0.0000 E_vdwl   =       774.0767 
E_coul   =     14666.4696 E_long   =    -19427.3929 Press    =       -56.3574 
Volume   =     11202.9090 
SHAKE stats (type/ave/delta) on step 350000
  2 0.999975 1.3319e-05
  2 109.47 0.0014146
---------------- Step   350000 ----- CPU =    968.3893 (sec) ----------------
TotEng   =     -3361.5713 KinEng   =       657.9045 Temp     =       304.8527 
PotEng   =     -4019.4758 E_bond   =         2.9913 E_angle  =         1.3365 
E_dihed  =         0.0000 E_impro  =         0.0000 E_vdwl   =       798.3356 
E_coul   =     14608.5650 E_long   =    -19430.7042 Press    =       452.5378 
Volume   =     10895.6975 
SHAKE stats (type/ave/delta) on step 360000
  2 0.999923 6.30813e-06
  2 109.47 0.000471282
---------------- Step   360000 ----- CPU =    996.2990 (sec) ----------------
TotEng   =     -3333.5031 KinEng   =       640.2164 Temp     =       296.6565 
PotEng   =     -3973.7196 E_bond   =         0.8803 E_angle  =         3.4124 
E_dihed  =         0.0000 E_impro  =         0.0000 E_vdwl   =       790.7652 
E_coul   =     14657.0923 E_long   =    -19425.8698 Press    =       535.1599 
Volume   =     10972.3612 
SHAKE stats (type/ave/delta) on step 370000
  2 0.99996 5.70878e-06
  2 109.47 0.000497957
---------------- Step   370000 ----- CPU =   1023.8437 (sec) ----------------
TotEng   =     -3376.0464 KinEng   =       619.6547 Temp     =       287.1289 
PotEng   =     -3995.7011 E_bond   =         2.8362 E_angle  =         3.0575 
E_dihed  =         0.0000 E_impro  =         0.0000 E_vdwl   =       754.3499 
E_coul   =     14673.2960 E_long   =    -19429.2407 Press    =      -554.1938 
Volume   =     10912.7337 
SHAKE stats (type/ave/delta) on step 380000
  2 0.999963 4.68606e-06
  2 109.47 0.000414178
---------------- Step   380000 ----- CPU =   1051.8161 (sec) ----------------
TotEng   =     -3347.5532 KinEng   =       639.5426 Temp     =       296.3443 
PotEng   =     -3987.0958 E_bond   =         1.1098 E_angle  =         2.1452 
E_dihed  =         0.0000 E_impro  =         0.0000 E_vdwl   =       762.7279 
E_coul   =     14675.1923 E_long   =    -19428.2709 Press    =      -491.9946 
Volume   =     11277.2108 
SHAKE stats (type/ave/delta) on step 390000
  2 1.00001 4.93655e-06
  2 109.47 0.000387742
---------------- Step   390000 ----- CPU =   1079.7491 (sec) ----------------
TotEng   =     -3324.2144 KinEng   =       657.4814 Temp     =       304.6566 
PotEng   =     -3981.6958 E_bond   =         1.0627 E_angle  =         1.1880 
E_dihed  =         0.0000 E_impro  =         0.0000 E_vdwl   =       756.3689 
E_coul   =     14690.0136 E_long   =    -19430.3290 Press    =      -157.7461 
Volume   =     10918.6632 
SHAKE stats (type/ave/delta) on step 400000
  2 1.00011 7.25285e-06
  2 109.47 0.000672825
---------------- Step   400000 ----- CPU =   1107.7278 (sec) ----------------
TotEng   =     -3320.0667 KinEng   =       631.8119 Temp     =       292.7622 
PotEng   =     -3951.8786 E_bond   =         2.4790 E_angle  =         0.8547 
E_dihed  =         0.0000 E_impro  =         0.0000 E_vdwl   =       749.2909 
E_coul   =     14725.2445 E_long   =    -19429.7477 Press    =      -642.1670 
Volume   =     11216.1717 
SHAKE stats (type/ave/delta) on step 410000
  2 1.00011 4.26557e-06
  2 109.47 0.000444838
---------------- Step   410000 ----- CPU =   1138.1349 (sec) ----------------
TotEng   =     -3386.1240 KinEng   =       625.6922 Temp     =       289.9265 
PotEng   =     -4011.8162 E_bond   =         0.8405 E_angle  =         1.7654 
E_dihed  =         0.0000 E_impro  =         0.0000 E_vdwl   =       784.8763 
E_coul   =     14630.7627 E_long   =    -19430.0611 Press    =       577.2585 
Volume   =     10706.9193 
SHAKE stats (type/ave/delta) on step 420000
  2 0.999916 4.28494e-06
  2 109.47 0.000441188
---------------- Step   420000 ----- CPU =   1167.7125 (sec) ----------------
TotEng   =     -3309.5685 KinEng   =       654.7759 Temp     =       303.4030 
PotEng   =     -3964.3444 E_bond   =         1.3452 E_angle  =         1.7074 
E_dihed  =         0.0000 E_impro  =         0.0000 E_vdwl   =       757.7311 
E_coul   =     14702.5622 E_long   =    -19427.6903 Press    =       -65.6635 
Volume   =     10933.1538 
SHAKE stats (type/ave/delta) on step 430000
  2 1.00004 4.61663e-06
  2 109.47 0.000390929
---------------- Step   430000 ----- CPU =   1195.4460 (sec) ----------------
TotEng   =     -3399.2226 KinEng   =       638.2265 Temp     =       295.7345 
PotEng   =     -4037.4491 E_bond   =         1.2015 E_angle  =         0.7355 
E_dihed  =         0.0000 E_impro  =         0.0000 E_vdwl   =       783.9773 
E_coul   =     14605.0264 E_long   =    -19428.3897 Press    =      -368.6642 
Volume   =     10925.7463 
SHAKE stats (type/ave/delta) on step 440000
  2 1.00004 5.55054e-06
  2 109.47 0.000512932
---------------- Step   440000 ----- CPU =   1223.1164 (sec) ----------------
TotEng   =     -3363.9056 KinEng   =       616.0395 Temp     =       285.4537 
PotEng   =     -3979.9451 E_bond   =         0.3055 E_angle  =         0.6392 
E_dihed  =         0.0000 E_impro  =         0.0000 E_vdwl   =       777.6935 
E_coul   =     14671.7883 E_long   =    -19430.3716 Press    =       340.3375 
Volume   =     10860.1025 
SHAKE stats (type/ave/delta) on step 450000
  2 1.00002 8.80685e-06
  2 109.47 0.00100291
---------------- Step   450000 ----- CPU =   1250.6351 (sec) ----------------
TotEng   =     -3391.4338 KinEng   =       606.2322 Temp     =       280.9093 
PotEng   =     -3997.6660 E_bond   =         1.5962 E_angle  =         3.0088 
E_dihed  =         0.0000 E_impro  =         0.0000 E_vdwl   =       805.6562 
E_coul   =     14620.1955 E_long   =    -19428.1227 Press    =       677.1996 
Volume   =     10775.0868 
SHAKE stats (type/ave/delta) on step 460000
  2 1.00005 1.09055e-05
  2 109.47 0.000910774
---------------- Step   460000 ----- CPU =   1280.2638 (sec) ----------------
TotEng   =     -3407.5110 KinEng   =       624.6502 Temp     =       289.4436 
PotEng   =     -4032.1611 E_bond   =         1.7789 E_angle  =         1.8786 
E_dihed  =         0.0000 E_impro  =         0.0000 E_vdwl   =       729.6529 
E_coul   =     14662.8242 E_long   =    -19428.2958 Press    =     -1324.0024 
Volume   =     11017.5175 
SHAKE stats (type/ave/delta) on step 470000
  2 1.00006 4.42436e-06
  2 109.47 0.000349656
---------------- Step   470000 ----- CPU =   1308.4152 (sec) ----------------
TotEng   =     -3344.2967 KinEng   =       654.1178 Temp     =       303.0980 
PotEng   =     -3998.4145 E_bond   =         1.5377 E_angle  =         1.5667 
E_dihed  =         0.0000 E_impro  =         0.0000 E_vdwl   =       748.1911 
E_coul   =     14680.8389 E_long   =    -19430.5489 Press    =      -550.0480 
Volume   =     10852.5988 
SHAKE stats (type/ave/delta) on step 480000
  2 0.99999 9.22429e-06
  2 109.47 0.000824408
---------------- Step   480000 ----- CPU =   1335.8113 (sec) ----------------
TotEng   =     -3314.5754 KinEng   =       649.7678 Temp     =       301.0824 
PotEng   =     -3964.3432 E_bond   =         0.7333 E_angle  =         0.7305 
E_dihed  =         0.0000 E_impro  =         0.0000 E_vdwl   =       729.9517 
E_coul   =     14729.8708 E_long   =    -19425.6295 Press    =      -719.3576 
Volume   =     10990.9625 
SHAKE stats (type/ave/delta) on step 490000
  2 0.999935 1.15806e-05
  2 109.47 0.00130046
---------------- Step   490000 ----- CPU =   1362.9601 (sec) ----------------
TotEng   =     -3369.8449 KinEng   =       654.1080 Temp     =       303.0935 
PotEng   =     -4023.9529 E_bond   =         0.6340 E_angle  =         2.2694 
E_dihed  =         0.0000 E_impro  =         0.0000 E_vdwl   =       770.3503 
E_coul   =     14630.9363 E_long   =    -19428.1429 Press    =       151.6833 
Volume   =     10838.3046 
SHAKE stats (type/ave/delta) on step 500000
  2 0.999973 5.47051e-06
  2 109.47 0.000467525
---------------- Step   500000 ----- CPU =   1390.4845 (sec) ----------------
TotEng   =     -3378.2883 KinEng   =       652.3068 Temp     =       302.2589 
PotEng   =     -4030.5951 E_bond   =         0.5249 E_angle  =         1.0738 
E_dihed  =         0.0000 E_impro  =         0.0000 E_vdwl   =       793.6390 
E_coul   =     14601.8336 E_long   =    -19427.6664 Press    =       242.0578 
Volume   =     10870.9230 
SHAKE stats (type/ave/delta) on step 510000
  2 0.999989 1.0994e-05
  2 109.47 0.000838108
---------------- Step   510000 ----- CPU =   1416.5240 (sec) ----------------
TotEng   =     -3366.1871 KinEng   =       646.6896 Temp     =       299.6560 
PotEng   =     -4012.8767 E_bond   =         3.0900 E_angle  =         0.3884 
E_dihed  =         0.0000 E_impro  =         0.0000 E_vdwl   =       760.5636 
E_coul   =     14651.2866 E_long   =    -19428.2054 Press    =       -72.2655 
Volume   =     10689.9418 
SHAKE stats (type/ave/delta) on step 520000
  2 0.999951 5.91205e-06
  2 109.47 0.000419367
---------------- Step   520000 ----- CPU =   1442.9232 (sec) ----------------
TotEng   =     -3345.4698 KinEng   =       651.4966 Temp     =       301.8834 
PotEng   =     -3996.9664 E_bond   =         2.1808 E_angle  =         1.2735 
E_dihed  =         0.0000 E_impro  =         0.0000 E_vdwl   =       777.1058 
E_coul   =     14650.7245 E_long   =    -19428.2509 Press    =       265.9471 
Volume   =     11006.8025 
SHAKE stats (type/ave/delta) on step 530000
  2 0.99997 4.40087e-06
  2 109.47 0.000405545
---------------- Step   530000 ----- CPU =   1468.3385 (sec) ----------------
TotEng   =     -3389.7094 KinEng   =       619.3904 Temp     =       287.0064 
PotEng   =     -4009.0998 E_bond   =         1.5972 E_angle  =         2.0310 
E_dihed  =         0.0000 E_impro  =         0.0000 E_vdwl   =       818.2225 
E_coul   =     14597.2749 E_long   =    -19428.2254 Press    =       486.5432 
Volume   =     11162.4915 
SHAKE stats (type/ave/delta) on step 540000
  2 1.0001 8.19341e-06
  2 109.47 0.000912627
---------------- Step   540000 ----- CPU =   1493.5660 (sec) ----------------
TotEng   =     -3414.0610 KinEng   =       589.0068 Temp     =       272.9276 
PotEng   =     -4003.0678 E_bond   =         2.3352 E_angle  =         0.8793 
E_dihed  =         0.0000 E_impro  =         0.0000 E_vdwl   =       720.8415 
E_coul   =     14700.3627 E_long   =    -19427.4864 Press    =     -1136.4441 
Volume   =     11004.5503 
SHAKE stats (type/ave/delta) on step 550000
  2 1.00005 1.29665e-05
  2 109.47 0.00127421
---------------- Step   550000 ----- CPU =   1519.8627 (sec) ----------------
TotEng   =     -3299.8147 KinEng   =       650.3267 Temp     =       301.3413 
PotEng   =     -3950.1413 E_bond   =         3.4739 E_angle  =         0.7031 
E_dihed  =         0.0000 E_impro  =         0.0000 E_vdwl   =       737.8370 
E_coul   =     14731.9822 E_long   =    -19424.1376 Press    =      -140.0417 
Volume   =     10990.2631 
SHAKE stats (type/ave/delta) on step 560000
  2 1.00006 5.03948e-06
  2 109.47 0.000433359
---------------- Step   560000 ----- CPU =   1547.5228 (sec) ----------------
TotEng   =     -3351.5002 KinEng   =       640.1679 Temp     =       296.6341 
PotEng   =     -3991.6681 E_bond   =         2.2368 E_angle  =         1.9397 
E_dihed  =         0.0000 E_impro  =         0.0000 E_vdwl   =       726.9087 
E_coul   =     14705.3821 E_long   =    -19428.1354 Press    =      -918.1285 
Volume   =     10816.4516 
SHAKE stats (type/ave/delta) on step 570000
  2 1.00004 6.15866e-06
  2 109.47 0.00054077
---------------- Step   570000 ----- CPU =   1574.6933 (sec) ----------------
TotEng   =     -3355.4274 KinEng   =       631.0303 Temp     =       292.4000 
PotEng   =     -3986.4576 E_bond   =         1.0364 E_angle  =         1.4222 
E_dihed  =         0.0000 E_impro  =         0.0000 E_vdwl   =       709.1662 
E_coul   =     14728.7650 E_long   =    -19426.8476 Press    =     -1544.9585 
Volume   =     11259.7339 
SHAKE stats (type/ave/delta) on step 580000
  2 1.0001 6.43158e-06
  2 109.47 0.00045219
---------------- Step   580000 ----- CPU =   1602.3090 (sec) ----------------
TotEng   =     -3320.9780 KinEng   =       666.3778 Temp     =       308.7789 
PotEng   =     -3987.3557 E_bond   =         1.7615 E_angle  =         0.5826 
E_dihed  =         0.0000 E_impro  =         0.0000 E_vdwl   =       805.6869 
E_coul   =     14635.6376 E_long   =    -19431.0243 Press    =       527.0732 
Volume   =     10984.7165 
SHAKE stats (type/ave/delta) on step 590000
  2 1.00003 6.0719e-06
  2 109.47 0.000577663
---------------- Step   590000 ----- CPU =   1631.6085 (sec) ----------------
TotEng   =     -3244.4582 KinEng   =       670.5521 Temp     =       310.7132 
PotEng   =     -3915.0103 E_bond   =         2.7206 E_angle  =         1.4634 
E_dihed  =         0.0000 E_impro  =         0.0000 E_vdwl   =       861.7012 
E_coul   =     14645.6108 E_long   =    -19426.5064 Press    =      2472.5046 
Volume   =     10865.4008 
SHAKE stats (type/ave/delta) on step 600000
  2 0.999963 5.23934e-06
  2 109.47 0.00044103
---------------- Step   600000 ----- CPU =   1659.1386 (sec) ----------------
TotEng   =     -3351.6182 KinEng   =       639.2864 Temp     =       296.2256 
PotEng   =     -3990.9046 E_bond   =         0.8831 E_angle  =         2.0799 
E_dihed  =         0.0000 E_impro  =         0.0000 E_vdwl   =       759.3404 
E_coul   =     14675.1608 E_long   =    -19428.3687 Press    =      -284.1459 
Volume   =     11048.8425 
SHAKE stats (type/ave/delta) on step 610000
  2 1.00001 4.78467e-06
  2 109.47 0.000507807
---------------- Step   610000 ----- CPU =   1686.5594 (sec) ----------------
TotEng   =     -3375.9042 KinEng   =       621.4398 Temp     =       287.9560 
PotEng   =     -3997.3440 E_bond   =         1.3527 E_angle  =         0.7049 
E_dihed  =         0.0000 E_impro  =         0.0000 E_vdwl   =       795.2838 
E_coul   =     14634.3558 E_long   =    -19429.0412 Press    =       318.6978 
Volume   =     11025.0421 
SHAKE stats (type/ave/delta) on step 620000
  2 0.999994 4.96225e-06
  2 109.47 0.00036564
---------------- Step   620000 ----- CPU =   1714.6675 (sec) ----------------
TotEng   =     -3341.0012 KinEng   =       638.1383 Temp     =       295.6936 
PotEng   =     -3979.1394 E_bond   =         1.5492 E_angle  =         1.0620 
E_dihed  =         0.0000 E_impro  =         0.0000 E_vdwl   =       789.3805 
E_coul   =     14657.8760 E_long   =    -19429.0071 Press    =       686.5674 
Volume   =     10947.6673 
SHAKE stats (type/ave/delta) on step 630000
  2 0.999964 7.39887e-06
  2 109.47 0.000959357
---------------- Step   630000 ----- CPU =   1741.9735 (sec) ----------------
TotEng   =     -3333.3894 KinEng   =       642.5417 Temp     =       297.7340 
PotEng   =     -3975.9311 E_bond   =         0.6029 E_angle  =         2.3708 
E_dihed  =         0.0000 E_impro  =         0.0000 E_vdwl   =       769.9769 
E_coul   =     14678.7616 E_long   =    -19427.6433 Press    =        82.1789 
Volume   =     11029.6645 
SHAKE stats (type/ave/delta) on step 640000
  2 1.00004 7.51863e-06
  2 109.47 0.000777987
---------------- Step   640000 ----- CPU =   1769.8401 (sec) ----------------
TotEng   =     -3318.6566 KinEng   =       684.7515 Temp     =       317.2927 
PotEng   =     -4003.4081 E_bond   =         0.4132 E_angle  =         3.3646 
E_dihed  =         0.0000 E_impro  =         0.0000 E_vdwl   =       752.7541 
E_coul   =     14668.3385 E_long   =    -19428.2785 Press    =      -658.1760 
Volume   =     11219.7032 
SHAKE stats (type/ave/delta) on step 650000
  2 0.999937 7.18333e-06
  2 109.47 0.0005112
---------------- Step   650000 ----- CPU =   1799.8260 (sec) ----------------
TotEng   =     -3310.0454 KinEng   =       651.0175 Temp     =       301.6614 
PotEng   =     -3961.0629 E_bond   =         0.7627 E_angle  =         1.6327 
E_dihed  =         0.0000 E_impro  =         0.0000 E_vdwl   =       764.5571 
E_coul   =     14700.1714 E_long   =    -19428.1868 Press    =       181.8599 
Volume   =     11051.3081 
SHAKE stats (type/ave/delta) on step 660000
  2 1.00004 3.86398e-06
  2 109.47 0.000403839
---------------- Step   660000 ----- CPU =   1827.7361 (sec) ----------------
TotEng   =     -3303.8132 KinEng   =       670.0826 Temp     =       310.4956 
PotEng   =     -3973.8958 E_bond   =         1.2639 E_angle  =         0.8571 
E_dihed  =         0.0000 E_impro  =         0.0000 E_vdwl   =       756.9265 
E_coul   =     14694.8375 E_long   =    -19427.7808 Press    =       -92.7417 
Volume   =     10964.7290 
SHAKE stats (type/ave/delta) on step 670000
  2 1.00003 1.24841e-05
  2 109.47 0.000948255
---------------- Step   670000 ----- CPU =   1854.9858 (sec) ----------------
TotEng   =     -3383.4682 KinEng   =       656.4369 Temp     =       304.1726 
PotEng   =     -4039.9051 E_bond   =         1.5844 E_angle  =         0.7238 
E_dihed  =         0.0000 E_impro  =         0.0000 E_vdwl   =       798.9624 
E_coul   =     14590.7949 E_long   =    -19431.9706 Press    =        58.0860 
Volume   =     10907.1462 
SHAKE stats (type/ave/delta) on step 680000
  2 1.00002 1.39466e-05
  2 109.47 0.00103375
---------------- Step   680000 ----- CPU =   1883.2300 (sec) ----------------
TotEng   =     -3326.0112 KinEng   =       655.9208 Temp     =       303.9335 
PotEng   =     -3981.9320 E_bond   =         1.0125 E_angle  =         1.6921 
E_dihed  =         0.0000 E_impro  =         0.0000 E_vdwl   =       715.4942 
E_coul   =     14730.3043 E_long   =    -19430.4353 Press    =      -244.2292 
Volume   =     10516.6003 
SHAKE stats (type/ave/delta) on step 690000
  2 1.00003 6.6366e-06
  2 109.47 0.000496759
---------------- Step   690000 ----- CPU =   1911.6218 (sec) ----------------
TotEng   =     -3321.8084 KinEng   =       642.9278 Temp     =       297.9129 
PotEng   =     -3964.7361 E_bond   =         0.8766 E_angle  =         2.2804 
E_dihed  =         0.0000 E_impro  =         0.0000 E_vdwl   =       770.4422 
E_coul   =     14691.2823 E_long   =    -19429.6177 Press    =       256.1640 
Volume   =     10939.4544 
SHAKE stats (type/ave/delta) on step 700000
  2 1.00008 7.88711e-06
  2 109.47 0.000707249
---------------- Step   700000 ----- CPU =   1939.1752 (sec) ----------------
TotEng   =     -3326.9490 KinEng   =       654.0181 Temp     =       303.0518 
PotEng   =     -3980.9672 E_bond   =         1.5645 E_angle  =         1.0568 
E_dihed  =         0.0000 E_impro  =         0.0000 E_vdwl   =       788.6939 
E_coul   =     14657.6357 E_long   =    -19429.9181 Press    =       291.9219 
Volume   =     11026.5286 
SHAKE stats (type/ave/delta) on step 710000
  2 1.00006 9.46741e-06
  2 109.47 0.000997899
---------------- Step   710000 ----- CPU =   1966.8313 (sec) ----------------
TotEng   =     -3331.2455 KinEng   =       655.1980 Temp     =       303.5986 
PotEng   =     -3986.4436 E_bond   =         1.1673 E_angle  =         0.4782 
E_dihed  =         0.0000 E_impro  =         0.0000 E_vdwl   =       732.3797 
E_coul   =     14709.0941 E_long   =    -19429.5629 Press    =      -465.4569 
Volume   =     10830.9691 
SHAKE stats (type/ave/delta) on step 720000
  2 1.00005 5.45276e-06
  2 109.47 0.000396819
---------------- Step   720000 ----- CPU =   1994.8197 (sec) ----------------
TotEng   =     -3346.4038 KinEng   =       624.1739 Temp     =       289.2229 
PotEng   =     -3970.5777 E_bond   =         0.4939 E_angle  =         1.6719 
E_dihed  =         0.0000 E_impro  =         0.0000 E_vdwl   =       762.9285 
E_coul   =     14691.5825 E_long   =    -19427.2545 Press    =      -296.4070 
Volume   =     11042.7123 
SHAKE stats (type/ave/delta) on step 730000
  2 0.999956 4.94816e-06
  2 109.47 0.000499433
---------------- Step   730000 ----- CPU =   2024.3511 (sec) ----------------
TotEng   =     -3350.3352 KinEng   =       658.6909 Temp     =       305.2170 
PotEng   =     -4009.0261 E_bond   =         1.0060 E_angle  =         0.8921 
E_dihed  =         0.0000 E_impro  =         0.0000 E_vdwl   =       793.6162 
E_coul   =     14626.1011 E_long   =    -19430.6413 Press    =       617.7121 
Volume   =     10739.0062 
SHAKE stats (type/ave/delta) on step 740000
  2 0.999986 1.17371e-05
  2 109.47 0.000843041
---------------- Step   740000 ----- CPU =   2051.5934 (sec) ----------------
TotEng   =     -3368.0196 KinEng   =       638.5371 Temp     =       295.8784 
PotEng   =     -4006.5567 E_bond   =         0.2750 E_angle  =         0.6515 
E_dihed  =         0.0000 E_impro  =         0.0000 E_vdwl   =       740.3956 
E_coul   =     14681.0845 E_long   =    -19428.9632 Press    =      -489.4132 
Volume   =     10900.4678 
SHAKE stats (type/ave/delta) on step 750000
  2 0.999869 3.30034e-06
  2 109.47 0.000340721
---------------- Step   750000 ----- CPU =   2078.8472 (sec) ----------------
TotEng   =     -3374.2948 KinEng   =       659.5461 Temp     =       305.6133 
PotEng   =     -4033.8409 E_bond   =         0.7047 E_angle  =         0.8887 
E_dihed  =         0.0000 E_impro  =         0.0000 E_vdwl   =       773.5897 
E_coul   =     14619.8124 E_long   =    -19428.8363 Press    =      -503.7680 
Volume   =     11201.5701 
SHAKE stats (type/ave/delta) on step 760000
  2 0.999923 5.13783e-06
  2 109.47 0.00057769
---------------- Step   760000 ----- CPU =   2104.7372 (sec) ----------------
TotEng   =     -3349.9103 KinEng   =       637.9299 Temp     =       295.5971 
PotEng   =     -3987.8402 E_bond   =         0.4061 E_angle  =         1.4908 
E_dihed  =         0.0000 E_impro  =         0.0000 E_vdwl   =       798.0893 
E_coul   =     14643.0576 E_long   =    -19430.8840 Press    =       922.1983 
Volume   =     10686.8961 
SHAKE stats (type/ave/delta) on step 770000
  2 0.999941 6.62522e-06
  2 109.47 0.000601839
---------------- Step   770000 ----- CPU =   2130.5873 (sec) ----------------
TotEng   =     -3383.4210 KinEng   =       622.1327 Temp     =       288.2771 
PotEng   =     -4005.5537 E_bond   =         0.0942 E_angle  =         1.4161 
E_dihed  =         0.0000 E_impro  =         0.0000 E_vdwl   =       750.4452 
E_coul   =     14671.2376 E_long   =    -19428.7468 Press    =      -522.3169 
Volume   =     10919.1303 
SHAKE stats (type/ave/delta) on step 780000
  2 0.999963 5.96482e-06
  2 109.47 0.000635277
---------------- Step   780000 ----- CPU =   2156.6163 (sec) ----------------
TotEng   =     -3356.1289 KinEng   =       617.9031 Temp     =       286.3172 
PotEng   =     -3974.0320 E_bond   =         0.4108 E_angle  =         0.7270 
E_dihed  =         0.0000 E_impro  =         0.0000 E_vdwl   =       771.7075 
E_coul   =     14681.9516 E_long   =    -19428.8289 Press    =       160.8115 
Volume   =     10965.3214 
SHAKE stats (type/ave/delta) on step 790000
  2 0.999932 6.56372e-06
  2 109.47 0.00047496
---------------- Step   790000 ----- CPU =   2183.6773 (sec) ----------------
TotEng   =     -3320.3532 KinEng   =       621.2583 Temp     =       287.8719 
PotEng   =     -3941.6114 E_bond   =         0.7625 E_angle  =         1.3309 
E_dihed  =         0.0000 E_impro  =         0.0000 E_vdwl   =       718.4854 
E_coul   =     14765.6214 E_long   =    -19427.8116 Press    =      -985.6865 
Volume   =     11193.0311 
SHAKE stats (type/ave/delta) on step 800000
  2 0.999954 3.59634e-06
  2 109.47 0.000335498
---------------- Step   800000 ----- CPU =   2209.0667 (sec) ----------------
TotEng   =     -3336.8758 KinEng   =       651.5811 Temp     =       301.9226 
PotEng   =     -3988.4569 E_bond   =         0.2399 E_angle  =         1.4139 
E_dihed  =         0.0000 E_impro  =         0.0000 E_vdwl   =       731.4605 
E_coul   =     14706.8549 E_long   =    -19428.4261 Press    =      -945.3418 
Volume   =     11108.8977 
SHAKE stats (type/ave/delta) on step 810000
  2 0.99997 5.30878e-06
  2 109.47 0.00048594
---------------- Step   810000 ----- CPU =   2237.2363 (sec) ----------------
TotEng   =     -3340.7108 KinEng   =       658.0699 Temp     =       304.9293 
PotEng   =     -3998.7808 E_bond   =         0.3115 E_angle  =         0.7089 
E_dihed  =         0.0000 E_impro  =         0.0000 E_vdwl   =       754.1194 
E_coul   =     14676.5818 E_long   =    -19430.5022 Press    =        10.4381 
Volume   =     10837.6273 
SHAKE stats (type/ave/delta) on step 820000
  2 0.999997 7.72238e-06
  2 109.47 0.000620543
---------------- Step   820000 ----- CPU =   2264.8789 (sec) ----------------
TotEng   =     -3370.6719 KinEng   =       643.3487 Temp     =       298.1079 
PotEng   =     -4014.0206 E_bond   =         0.6364 E_angle  =         1.3820 
E_dihed  =         0.0000 E_impro  =         0.0000 E_vdwl   =       767.8936 
E_coul   =     14643.9229 E_long   =    -19427.8555 Press    =       148.2507 
Volume   =     10890.9038 
SHAKE stats (type/ave/delta) on step 830000
  2 1.00006 5.38025e-06
  2 109.47 0.000398064
---------------- Step   830000 ----- CPU =   2292.7439 (sec) ----------------
TotEng   =     -3304.3013 KinEng   =       651.5231 Temp     =       301.8957 
PotEng   =     -3955.8243 E_bond   =         1.4045 E_angle  =         2.0000 
E_dihed  =         0.0000 E_impro  =         0.0000 E_vdwl   =       738.9538 
E_coul   =     14730.7728 E_long   =    -19428.9554 Press    =      -411.8548 
Volume   =     10967.3915 
SHAKE stats (type/ave/delta) on step 840000
  2 0.999961 6.68077e-06
  2 109.47 0.000585725
---------------- Step   840000 ----- CPU =   2320.9383 (sec) ----------------
TotEng   =     -3307.0710 KinEng   =       668.8439 Temp     =       309.9217 
PotEng   =     -3975.9149 E_bond   =         1.9089 E_angle  =         3.6578 
E_dihed  =         0.0000 E_impro  =         0.0000 E_vdwl   =       817.1884 
E_coul   =     14625.2572 E_long   =    -19423.9272 Press    =      1242.8082 
Volume   =     10834.4574 
SHAKE stats (type/ave/delta) on step 850000
  2 0.999951 5.0012e-06
  2 109.47 0.000520383
---------------- Step   850000 ----- CPU =   2349.3237 (sec) ----------------
TotEng   =     -3416.9812 KinEng   =       648.3807 Temp     =       300.4396 
PotEng   =     -4065.3619 E_bond   =         1.7019 E_angle  =         0.8975 
E_dihed  =         0.0000 E_impro  =         0.0000 E_vdwl   =       762.3914 
E_coul   =     14598.8127 E_long   =    -19429.1654 Press    =      -633.4220 
Volume   =     10970.7922 
SHAKE stats (type/ave/delta) on step 860000
  2 0.999859 3.76982e-06
  2 109.47 0.000380983
---------------- Step   860000 ----- CPU =   2376.9195 (sec) ----------------
TotEng   =     -3303.4891 KinEng   =       658.6171 Temp     =       305.1829 
PotEng   =     -3962.1062 E_bond   =         1.4398 E_angle  =         2.4569 
E_dihed  =         0.0000 E_impro  =         0.0000 E_vdwl   =       736.2902 
E_coul   =     14729.2711 E_long   =    -19431.5641 Press    =      -663.4834 
Volume   =     11179.7892 
SHAKE stats (type/ave/delta) on step 870000
  2 0.999965 1.09975e-05
  2 109.47 0.000897931
---------------- Step   870000 ----- CPU =   2404.7455 (sec) ----------------
TotEng   =     -3286.5712 KinEng   =       643.3806 Temp     =       298.1227 
PotEng   =     -3929.9518 E_bond   =         0.9176 E_angle  =         2.0778 
E_dihed  =         0.0000 E_impro  =         0.0000 E_vdwl   =       809.5982 
E_coul   =     14686.0243 E_long   =    -19428.5697 Press    =      1711.2013 
Volume   =     10805.8358 
SHAKE stats (type/ave/delta) on step 880000
  2 1.00002 9.16712e-06
  2 109.47 0.00085775
---------------- Step   880000 ----- CPU =   2432.0550 (sec) ----------------
TotEng   =     -3304.4340 KinEng   =       641.3979 Temp     =       297.2040 
PotEng   =     -3945.8319 E_bond   =         2.1232 E_angle  =         1.3278 
E_dihed  =         0.0000 E_impro  =         0.0000 E_vdwl   =       729.0977 
E_coul   =     14750.2804 E_long   =    -19428.6610 Press    =      -512.9410 
Volume   =     11104.1029 
SHAKE stats (type/ave/delta) on step 890000
  2 0.999956 4.05157e-06
  2 109.47 0.000363862
---------------- Step   890000 ----- CPU =   2459.3505 (sec) ----------------
TotEng   =     -3416.5104 KinEng   =       632.0409 Temp     =       292.8683 
PotEng   =     -4048.5513 E_bond   =         4.0143 E_angle  =         1.6700 
E_dihed  =         0.0000 E_impro  =         0.0000 E_vdwl   =       804.9480 
E_coul   =     14571.8266 E_long   =    -19431.0102 Press    =       520.9696 
Volume   =     10754.9348 
SHAKE stats (type/ave/delta) on step 900000
  2 0.999906 4.44228e-06
  2 109.47 0.000381686
---------------- Step   900000 ----- CPU =   2486.7459 (sec) ----------------
TotEng   =     -3361.5682 KinEng   =       627.3722 Temp     =       290.7049 
PotEng   =     -3988.9404 E_bond   =         4.4035 E_angle  =         2.3005 
E_dihed  =         0.0000 E_impro  =         0.0000 E_vdwl   =       746.5626 
E_coul   =     14685.9567 E_long   =    -19428.1637 Press    =      -447.7421 
Volume   =     11084.0184 
SHAKE stats (type/ave/delta) on step 910000
  2 1.00002 6.92766e-06
  2 109.47 0.000730508
---------------- Step   910000 ----- CPU =   2514.9605 (sec) ----------------
TotEng   =     -3325.2878 KinEng   =       683.6839 Temp     =       316.7980 
PotEng   =     -4008.9717 E_bond   =         2.1987 E_angle  =         0.5013 
E_dihed  =         0.0000 E_impro  =         0.0000 E_vdwl   =       795.3798 
E_coul   =     14618.8713 E_long   =    -19425.9228 Press    =       400.5626 
Volume   =     10833.0504 
SHAKE stats (type/ave/delta) on step 920000
  2 0.999998 1.42394e-05
  2 109.47 0.00125316
---------------- Step   920000 ----- CPU =   2543.5867 (sec) ----------------
TotEng   =     -3267.6945 KinEng   =       648.3712 Temp     =       300.4352 
PotEng   =     -3916.0657 E_bond   =         5.9446 E_angle  =         0.6288 
E_dihed  =         0.0000 E_impro  =         0.0000 E_vdwl   =       815.3228 
E_coul   =     14688.3836 E_long   =    -19426.3456 Press    =      1673.5870 
Volume   =     10883.3316 
SHAKE stats (type/ave/delta) on step 930000
  2 1.00004 8.28254e-06
  2 109.47 0.000506479
---------------- Step   930000 ----- CPU =   2570.9566 (sec) ----------------
TotEng   =     -3356.2975 KinEng   =       674.2543 Temp     =       312.4286 
PotEng   =     -4030.5517 E_bond   =         1.4182 E_angle  =         1.9709 
E_dihed  =         0.0000 E_impro  =         0.0000 E_vdwl   =       735.3864 
E_coul   =     14660.6027 E_long   =    -19429.9299 Press    =      -618.0188 
Volume   =     10812.5005 
SHAKE stats (type/ave/delta) on step 940000
  2 0.999975 5.88836e-06
  2 109.47 0.000436183
---------------- Step   940000 ----- CPU =   2598.3745 (sec) ----------------
TotEng   =     -3287.4056 KinEng   =       668.0436 Temp     =       309.5508 
PotEng   =     -3955.4492 E_bond   =         1.3258 E_angle  =         2.0880 
E_dihed  =         0.0000 E_impro  =         0.0000 E_vdwl   =       745.2597 
E_coul   =     14726.5888 E_long   =    -19430.7115 Press    =      -154.9197 
Volume   =     11083.0689 
SHAKE stats (type/ave/delta) on step 950000
  2 0.99998 1.16197e-05
  2 109.47 0.000970165
---------------- Step   950000 ----- CPU =   2625.6435 (sec) ----------------
TotEng   =     -3259.8966 KinEng   =       662.7051 Temp     =       307.0771 
PotEng   =     -3922.6017 E_bond   =         0.9612 E_angle  =         0.7234 
E_dihed  =         0.0000 E_impro  =         0.0000 E_vdwl   =       793.6822 
E_coul   =     14712.5467 E_long   =    -19430.5153 Press    =      1177.1161 
Volume   =     10870.5087 
SHAKE stats (type/ave/delta) on step 960000
  2 1.00009 5.75798e-06
  2 109.47 0.000447939
---------------- Step   960000 ----- CPU =   2654.4777 (sec) ----------------
TotEng   =     -3270.8348 KinEng   =       664.0269 Temp     =       307.6896 
PotEng   =     -3934.8617 E_bond   =         3.0757 E_angle  =         1.3552 
E_dihed  =         0.0000 E_impro  =         0.0000 E_vdwl   =       719.4001 
E_coul   =     14768.2286 E_long   =    -19426.9213 Press    =      -878.0515 
Volume   =     11183.1221 
SHAKE stats (type/ave/delta) on step 970000
  2 0.999788 8.87408e-06
  2 109.47 0.000720906
---------------- Step   970000 ----- CPU =   2682.2331 (sec) ----------------
TotEng   =     -3318.1147 KinEng   =       631.9829 Temp     =       292.8414 
PotEng   =     -3950.0976 E_bond   =         3.4750 E_angle  =         1.5817 
E_dihed  =         0.0000 E_impro  =         0.0000 E_vdwl   =       737.9631 
E_coul   =     14735.3041 E_long   =    -19428.4216 Press    =      -270.5175 
Volume   =     11067.9515 
SHAKE stats (type/ave/delta) on step 980000
  2 1.00002 4.42654e-06
  2 109.47 0.000370637
---------------- Step   980000 ----- CPU =   2710.6548 (sec) ----------------
TotEng   =     -3338.8654 KinEng   =       637.4097 Temp     =       295.3560 
PotEng   =     -3976.2751 E_bond   =         2.5704 E_angle  =         3.7001 
E_dihed  =         0.0000 E_impro  =         0.0000 E_vdwl   =       776.7943 
E_coul   =     14667.8336 E_long   =    -19427.1735 Press    =      -443.8804 
Volume   =     11189.2361 
SHAKE stats (type/ave/delta) on step 990000
  2 1.0001 1.35114e-05
  2 109.47 0.000903678
---------------- Step   990000 ----- CPU =   2740.6181 (sec) ----------------
TotEng   =     -3359.2790 KinEng   =       652.4829 Temp     =       302.3405 
PotEng   =     -4011.7619 E_bond   =         0.7099 E_angle  =         1.1497 
E_dihed  =         0.0000 E_impro  =         0.0000 E_vdwl   =       772.8149 
E_coul   =     14643.5166 E_long   =    -19429.9531 Press    =      -209.4874 
Volume   =     11072.2469 
SHAKE stats (type/ave/delta) on step 1000000
  2 1.00008 4.79292e-06
  2 109.47 0.000492847
---------------- Step  1000000 ----- CPU =   2768.9498 (sec) ----------------
TotEng   =     -3363.2455 KinEng   =       616.5504 Temp     =       285.6905 
PotEng   =     -3979.7959 E_bond   =         1.4224 E_angle  =         1.0065 
E_dihed  =         0.0000 E_impro  =         0.0000 E_vdwl   =       741.7559 
E_coul   =     14703.9769 E_long   =    -19427.9576 Press    =      -724.3163 
Volume   =     10975.6750 
SHAKE stats (type/ave/delta) on step 1010000
  2 1.00011 4.21489e-06
  2 109.47 0.000512816
---------------- Step  1010000 ----- CPU =   2795.9337 (sec) ----------------
TotEng   =     -3317.0309 KinEng   =       652.8580 Temp     =       302.5143 
PotEng   =     -3969.8889 E_bond   =         0.9981 E_angle  =         2.4221 
E_dihed  =         0.0000 E_impro  =         0.0000 E_vdwl   =       770.3798 
E_coul   =     14683.4804 E_long   =    -19427.1694 Press    =       226.6649 
Volume   =     11028.7957 
SHAKE stats (type/ave/delta) on step 1020000
  2 0.999962 5.24653e-06
  2 109.47 0.000485845
---------------- Step  1020000 ----- CPU =   2820.6728 (sec) ----------------
TotEng   =     -3274.5160 KinEng   =       680.5461 Temp     =       315.3441 
PotEng   =     -3955.0621 E_bond   =         2.3795 E_angle  =         1.7072 
E_dihed  =         0.0000 E_impro  =         0.0000 E_vdwl   =       764.5418 
E_coul   =     14703.2552 E_long   =    -19426.9457 Press    =        81.9116 
Volume   =     11007.4235 
SHAKE stats (type/ave/delta) on step 1030000
  2 0.999979 4.44311e-06
  2 109.47 0.000541702
---------------- Step  1030000 ----- CPU =   2846.0073 (sec) ----------------
TotEng   =     -3294.9965 KinEng   =       651.1116 Temp     =       301.7050 
PotEng   =     -3946.1081 E_bond   =         1.3336 E_angle  =         2.0263 
E_dihed  =         0.0000 E_impro  =         0.0000 E_vdwl   =       698.0149 
E_coul   =     14779.0765 E_long   =    -19426.5594 Press    =      -765.4599 
Volume   =     10878.5478 
SHAKE stats (type/ave/delta) on step 1040000
  2 0.999959 1.13632e-05
  2 109.47 0.00107351
---------------- Step  1040000 ----- CPU =   2871.3200 (sec) ----------------
TotEng   =     -3331.3635 KinEng   =       644.5169 Temp     =       298.6493 
PotEng   =     -3975.8805 E_bond   =         2.1842 E_angle  =         2.2534 
E_dihed  =         0.0000 E_impro  =         0.0000 E_vdwl   =       797.0527 
E_coul   =     14650.5992 E_long   =    -19427.9700 Press    =       695.7179 
Volume   =     10998.0640 
SHAKE stats (type/ave/delta) on step 1050000
  2 1.00002 5.01554e-06
  2 109.47 0.000465065
---------------- Step  1050000 ----- CPU =   2896.9220 (sec) ----------------
TotEng   =     -3380.1124 KinEng   =       647.4688 Temp     =       300.0171 
PotEng   =     -4027.5812 E_bond   =         0.4493 E_angle  =         3.0038 
E_dihed  =         0.0000 E_impro  =         0.0000 E_vdwl   =       813.7558 
E_coul   =     14584.7001 E_long   =    -19429.4902 Press    =       590.6662 
Volume   =     10904.8567 
SHAKE stats (type/ave/delta) on step 1060000
  2 1.00004 4.40225e-06
  2 109.47 0.00043886
---------------- Step  1060000 ----- CPU =   2924.8121 (sec) ----------------
TotEng   =     -3334.5768 KinEng   =       648.1530 Temp     =       300.3341 
PotEng   =     -3982.7298 E_bond   =         0.7565 E_angle  =         2.5259 
E_dihed  =         0.0000 E_impro  =         0.0000 E_vdwl   =       749.2565 
E_coul   =     14692.8929 E_long   =    -19428.1616 Press    =      -187.0591 
Volume   =     10893.2339 
SHAKE stats (type/ave/delta) on step 1070000
  2 1.00003 5.29423e-06
  2 109.47 0.000542353
---------------- Step  1070000 ----- CPU =   2952.4784 (sec) ----------------
TotEng   =     -3344.7933 KinEng   =       656.8957 Temp     =       304.3852 
PotEng   =     -4001.6890 E_bond   =         0.0763 E_angle  =         2.8923 
E_dihed  =         0.0000 E_impro  =         0.0000 E_vdwl   =       871.0515 
E_coul   =     14552.5200 E_long   =    -19428.2292 Press    =      1839.8213 
Volume   =     10938.3091 
SHAKE stats (type/ave/delta) on step 1080000
  2 0.999984 5.23442e-06
  2 109.47 0.000548404
---------------- Step  1080000 ----- CPU =   2980.5290 (sec) ----------------
TotEng   =     -3370.5409 KinEng   =       640.7546 Temp     =       296.9059 
PotEng   =     -4011.2955 E_bond   =         0.8326 E_angle  =         1.0555 
E_dihed  =         0.0000 E_impro  =         0.0000 E_vdwl   =       767.6815 
E_coul   =     14644.3955 E_long   =    -19425.2606 Press    =      -315.7263 
Volume   =     10943.5677 
SHAKE stats (type/ave/delta) on step 1090000
  2 0.999921 4.82654e-06
  2 109.47 0.000431258
---------------- Step  1090000 ----- CPU =   3007.8895 (sec) ----------------
TotEng   =     -3316.4732 KinEng   =       678.1429 Temp     =       314.2305 
PotEng   =     -3994.6161 E_bond   =         2.5242 E_angle  =         1.2979 
E_dihed  =         0.0000 E_impro  =         0.0000 E_vdwl   =       762.5489 
E_coul   =     14667.9183 E_long   =    -19428.9054 Press    =      -332.5647 
Volume   =     11058.7911 
SHAKE stats (type/ave/delta) on step 1100000
  2 1.00003 9.81242e-06
  2 109.47 0.000776662
---------------- Step  1100000 ----- CPU =   3035.9637 (sec) ----------------
TotEng   =     -3365.7314 KinEng   =       636.6835 Temp     =       295.0195 
PotEng   =     -4002.4149 E_bond   =         1.8409 E_angle  =         1.5078 
E_dihed  =         0.0000 E_impro  =         0.0000 E_vdwl   =       775.2820 
E_coul   =     14648.6303 E_long   =    -19429.6758 Press    =       182.7424 
Volume   =     10893.6552 
SHAKE stats (type/ave/delta) on step 1110000
  2 1.00003 9.28854e-06
  2 109.47 0.000582756
---------------- Step  1110000 ----- CPU =   3063.3966 (sec) ----------------
TotEng   =     -3253.4345 KinEng   =       653.3184 Temp     =       302.7276 
PotEng   =     -3906.7529 E_bond   =         2.2317 E_angle  =         4.6097 
E_dihed  =         0.0000 E_impro  =         0.0000 E_vdwl   =       681.3466 
E_coul   =     14833.1908 E_long   =    -19428.1318 Press    =     -1563.8677 
Volume   =     11210.8997 
SHAKE stats (type/ave/delta) on step 1120000
  2 0.999934 5.58684e-06
  2 109.47 0.000391981
---------------- Step  1120000 ----- CPU =   3091.1650 (sec) ----------------
TotEng   =     -3348.3190 KinEng   =       665.5743 Temp     =       308.4066 
PotEng   =     -4013.8933 E_bond   =         2.1506 E_angle  =         1.8293 
E_dihed  =         0.0000 E_impro  =         0.0000 E_vdwl   =       761.9361 
E_coul   =     14646.2648 E_long   =    -19426.0740 Press    =      -195.8758 
Volume   =     10800.1214 
SHAKE stats (type/ave/delta) on step 1130000
  2 0.999962 4.98665e-06
  2 109.47 0.000480701
---------------- Step  1130000 ----- CPU =   3117.8212 (sec) ----------------
TotEng   =     -3371.3910 KinEng   =       656.1341 Temp     =       304.0323 
PotEng   =     -4027.5251 E_bond   =         1.1444 E_angle  =         3.8663 
E_dihed  =         0.0000 E_impro  =         0.0000 E_vdwl   =       788.4724 
E_coul   =     14609.3691 E_long   =    -19430.3774 Press    =       326.7536 
Volume   =     10921.2018 
SHAKE stats (type/ave/delta) on step 1140000
  2 1.00005 6.75816e-06
  2 109.47 0.00071572
---------------- Step  1140000 ----- CPU =   3144.2478 (sec) ----------------
TotEng   =     -3372.3878 KinEng   =       658.4257 Temp     =       305.0942 
PotEng   =     -4030.8135 E_bond   =         0.5785 E_angle  =         4.4981 
E_dihed  =         0.0000 E_impro  =         0.0000 E_vdwl   =       773.1230 
E_coul   =     14621.7604 E_long   =    -19430.7736 Press    =      -178.3667 
Volume   =     10895.3690 
SHAKE stats (type/ave/delta) on step 1150000
  2 0.999981 5.75843e-06
  2 109.47 0.000639635
---------------- Step  1150000 ----- CPU =   3171.5086 (sec) ----------------
TotEng   =     -3374.4017 KinEng   =       618.3543 Temp     =       286.5263 
PotEng   =     -3992.7560 E_bond   =         1.8368 E_angle  =         2.6244 
E_dihed  =         0.0000 E_impro  =         0.0000 E_vdwl   =       744.1680 
E_coul   =     14686.3559 E_long   =    -19427.7411 Press    =      -631.5177 
Volume   =     10890.8696 
SHAKE stats (type/ave/delta) on step 1160000
  2 1.00002 6.22993e-06
  2 109.47 0.000496932
---------------- Step  1160000 ----- CPU =   3199.1119 (sec) ----------------
TotEng   =     -3373.7379 KinEng   =       657.6148 Temp     =       304.7184 
PotEng   =     -4031.3527 E_bond   =         3.0956 E_angle  =         1.1547 
E_dihed  =         0.0000 E_impro  =         0.0000 E_vdwl   =       791.5041 
E_coul   =     14601.0610 E_long   =    -19428.1681 Press    =      -132.8889 
Volume   =     10846.8427 
SHAKE stats (type/ave/delta) on step 1170000
  2 1.00005 4.37274e-06
  2 109.47 0.000346151
---------------- Step  1170000 ----- CPU =   3226.3797 (sec) ----------------
TotEng   =     -3383.4852 KinEng   =       627.9299 Temp     =       290.9634 
PotEng   =     -4011.4150 E_bond   =         2.1074 E_angle  =         0.9514 
E_dihed  =         0.0000 E_impro  =         0.0000 E_vdwl   =       805.9798 
E_coul   =     14610.0479 E_long   =    -19430.5015 Press    =       915.3433 
Volume   =     10859.2669 
SHAKE stats (type/ave/delta) on step 1180000
  2 0.999997 4.25063e-06
  2 109.47 0.000411767
---------------- Step  1180000 ----- CPU =   3255.9744 (sec) ----------------
TotEng   =     -3391.4712 KinEng   =       641.6171 Temp     =       297.3056 
PotEng   =     -4033.0882 E_bond   =         0.8501 E_angle  =         2.2615 
E_dihed  =         0.0000 E_impro  =         0.0000 E_vdwl   =       770.1576 
E_coul   =     14621.5768 E_long   =    -19427.9341 Press    =      -424.4361 
Volume   =     10950.4423 
SHAKE stats (type/ave/delta) on step 1190000
  2 0.999917 7.12541e-06
  2 109.47 0.000672151
---------------- Step  1190000 ----- CPU =   3285.6662 (sec) ----------------
TotEng   =     -3346.5597 KinEng   =       644.0693 Temp     =       298.4419 
PotEng   =     -3990.6290 E_bond   =         0.9533 E_angle  =         3.2302 
E_dihed  =         0.0000 E_impro  =         0.0000 E_vdwl   =       795.7871 
E_coul   =     14639.7250 E_long   =    -19430.3245 Press    =       941.8049 
Volume   =     10708.5712 
SHAKE stats (type/ave/delta) on step 1200000
  2 1.00004 4.98733e-06
  2 109.47 0.000442738
---------------- Step  1200000 ----- CPU =   3313.4280 (sec) ----------------
TotEng   =     -3302.2304 KinEng   =       651.7208 Temp     =       301.9873 
PotEng   =     -3953.9512 E_bond   =         1.0851 E_angle  =         2.0257 
E_dihed  =         0.0000 E_impro  =         0.0000 E_vdwl   =       797.7728 
E_coul   =     14672.8120 E_long   =    -19427.6467 Press    =      1055.7640 
Volume   =     11004.4729 
SHAKE stats (type/ave/delta) on step 1210000
  2 1.00008 7.11189e-06
  2 109.47 0.000729605
---------------- Step  1210000 ----- CPU =   3341.3750 (sec) ----------------
TotEng   =     -3337.8890 KinEng   =       667.5510 Temp     =       309.3226 
PotEng   =     -4005.4400 E_bond   =         1.8803 E_angle  =         0.6878 
E_dihed  =         0.0000 E_impro  =         0.0000 E_vdwl   =       782.3680 
E_coul   =     14638.8001 E_long   =    -19429.1763 Press    =       230.1879 
Volume   =     10892.5849 
SHAKE stats (type/ave/delta) on step 1220000
  2 0.99999 9.62017e-06
  2 109.47 0.00110233
---------------- Step  1220000 ----- CPU =   3369.2485 (sec) ----------------
TotEng   =     -3428.4294 KinEng   =       596.1070 Temp     =       276.2176 
PotEng   =     -4024.5364 E_bond   =         2.5426 E_angle  =         0.8630 
E_dihed  =         0.0000 E_impro  =         0.0000 E_vdwl   =       829.8522 
E_coul   =     14569.1224 E_long   =    -19426.9165 Press    =      1007.5935 
Volume   =     10869.2464 
SHAKE stats (type/ave/delta) on step 1230000
  2 1.00003 8.44344e-06
  2 109.47 0.00072444
---------------- Step  1230000 ----- CPU =   3397.0769 (sec) ----------------
TotEng   =     -3278.8532 KinEng   =       672.3652 Temp     =       311.5533 
PotEng   =     -3951.2184 E_bond   =         2.2096 E_angle  =         2.3834 
E_dihed  =         0.0000 E_impro  =         0.0000 E_vdwl   =       781.8962 
E_coul   =     14689.6722 E_long   =    -19427.3798 Press    =      1003.9759 
Volume   =     10627.2065 
SHAKE stats (type/ave/delta) on step 1240000
  2 0.999979 9.99744e-06
  2 109.47 0.00103941
---------------- Step  1240000 ----- CPU =   3424.2271 (sec) ----------------
TotEng   =     -3388.9967 KinEng   =       629.0560 Temp     =       291.4852 
PotEng   =     -4018.0527 E_bond   =         0.5380 E_angle  =         1.3681 
E_dihed  =         0.0000 E_impro  =         0.0000 E_vdwl   =       794.5347 
E_coul   =     14615.6030 E_long   =    -19430.0965 Press    =       538.7546 
Volume   =     10872.8178 
SHAKE stats (type/ave/delta) on step 1250000
  2 0.99988 3.45641e-06
  2 109.47 0.000367918
---------------- Step  1250000 ----- CPU =   3451.0675 (sec) ----------------
TotEng   =     -3370.1029 KinEng   =       629.5703 Temp     =       291.7235 
PotEng   =     -3999.6733 E_bond   =         1.9561 E_angle  =         1.3015 
E_dihed  =         0.0000 E_impro  =         0.0000 E_vdwl   =       812.5933 
E_coul   =     14612.7530 E_long   =    -19428.2772 Press    =       484.9638 
Volume   =     11197.6755 
SHAKE stats (type/ave/delta) on step 1260000
  2 1 5.45912e-06
  2 109.47 0.000435815
---------------- Step  1260000 ----- CPU =   3476.6623 (sec) ----------------
TotEng   =     -3359.8691 KinEng   =       660.9275 Temp     =       306.2534 
PotEng   =     -4020.7965 E_bond   =         1.4601 E_angle  =         1.9446 
E_dihed  =         0.0000 E_impro  =         0.0000 E_vdwl   =       768.8334 
E_coul   =     14632.2713 E_long   =    -19425.3059 Press    =      -344.5813 
Volume   =     11098.6605 
SHAKE stats (type/ave/delta) on step 1270000
  2 0.999944 3.84433e-06
  2 109.47 0.000374893
---------------- Step  1270000 ----- CPU =   3502.0281 (sec) ----------------
TotEng   =     -3374.0838 KinEng   =       628.3997 Temp     =       291.1811 
PotEng   =     -4002.4835 E_bond   =         1.7768 E_angle  =         1.7946 
E_dihed  =         0.0000 E_impro  =         0.0000 E_vdwl   =       761.9069 
E_coul   =     14658.8737 E_long   =    -19426.8354 Press    =      -577.8294 
Volume   =     11207.2929 
SHAKE stats (type/ave/delta) on step 1280000
  2 0.999952 5.85074e-06
  2 109.47 0.000665962
---------------- Step  1280000 ----- CPU =   3529.5461 (sec) ----------------
TotEng   =     -3352.6844 KinEng   =       665.9486 Temp     =       308.5801 
PotEng   =     -4018.6331 E_bond   =         1.7842 E_angle  =         1.2700 
E_dihed  =         0.0000 E_impro  =         0.0000 E_vdwl   =       794.9292 
E_coul   =     14614.9384 E_long   =    -19431.5549 Press    =       476.2183 
Volume   =     10806.3506 
SHAKE stats (type/ave/delta) on step 1290000
  2 1.00003 7.80469e-06
  2 109.47 0.000571247
---------------- Step  1290000 ----- CPU =   3557.6548 (sec) ----------------
TotEng   =     -3438.3022 KinEng   =       612.9221 Temp     =       284.0092 
PotEng   =     -4051.2243 E_bond   =         3.1800 E_angle  =         2.4496 
E_dihed  =         0.0000 E_impro  =         0.0000 E_vdwl   =       806.6648 
E_coul   =     14564.0779 E_long   =    -19427.5965 Press    =       380.8547 
Volume   =     10613.7526 
SHAKE stats (type/ave/delta) on step 1300000
  2 1.00006 1.36422e-05
  2 109.47 0.00122765
---------------- Step  1300000 ----- CPU =   3585.6913 (sec) ----------------
TotEng   =     -3380.9488 KinEng   =       616.6340 Temp     =       285.7292 
PotEng   =     -3997.5828 E_bond   =         0.5746 E_angle  =         3.5286 
E_dihed  =         0.0000 E_impro  =         0.0000 E_vdwl   =       743.4608 
E_coul   =     14682.7252 E_long   =    -19427.8720 Press    =      -732.5613 
Volume   =     11020.2844 
SHAKE stats (type/ave/delta) on step 1310000
  2 1.00007 7.4918e-06
  2 109.47 0.000585167
---------------- Step  1310000 ----- CPU =   3614.6666 (sec) ----------------
TotEng   =     -3390.0080 KinEng   =       663.5833 Temp     =       307.4840 
PotEng   =     -4053.5913 E_bond   =         2.2676 E_angle  =         1.5077 
E_dihed  =         0.0000 E_impro  =         0.0000 E_vdwl   =       803.9237 
E_coul   =     14569.1126 E_long   =    -19430.4029 Press    =       357.2261 
Volume   =     10807.8702 
SHAKE stats (type/ave/delta) on step 1320000
  2 0.999922 5.67158e-06
  2 109.47 0.00056343
---------------- Step  1320000 ----- CPU =   3642.6350 (sec) ----------------
TotEng   =     -3330.6031 KinEng   =       663.0439 Temp     =       307.2341 
PotEng   =     -3993.6470 E_bond   =         1.2036 E_angle  =         1.2430 
E_dihed  =         0.0000 E_impro  =         0.0000 E_vdwl   =       763.1011 
E_coul   =     14672.2944 E_long   =    -19431.4892 Press    =        27.5055 
Volume   =     10986.4131 
SHAKE stats (type/ave/delta) on step 1330000
  2 0.999892 7.58711e-06
  2 109.47 0.000756312
---------------- Step  1330000 ----- CPU =   3670.5307 (sec) ----------------
TotEng   =     -3388.6869 KinEng   =       644.2005 Temp     =       298.5027 
PotEng   =     -4032.8875 E_bond   =         2.3319 E_angle  =         3.7397 
E_dihed  =         0.0000 E_impro  =         0.0000 E_vdwl   =       760.6989 
E_coul   =     14630.0081 E_long   =    -19429.6661 Press    =      -190.9807 
Volume   =     10887.7184 
SHAKE stats (type/ave/delta) on step 1340000
  2 0.999984 6.87563e-06
  2 109.47 0.000562539
---------------- Step  1340000 ----- CPU =   3697.6708 (sec) ----------------
[...]
E_dihed  =         0.0000 E_impro  =         0.0000 E_vdwl   =       838.3089 
E_coul   =     14553.7502 E_long   =    -19427.6626 Press    =       958.8380 
Volume   =     10861.5326 
SHAKE stats (type/ave/delta) on step 4650000
  2 0.999974 7.94413e-06
  2 109.47 0.000581962
---------------- Step  4650000 ----- CPU =  12933.1643 (sec) ----------------
TotEng   =     -3334.5273 KinEng   =       645.7820 Temp     =       299.2355 
PotEng   =     -3980.3094 E_bond   =         0.8671 E_angle  =         1.6429 
E_dihed  =         0.0000 E_impro  =         0.0000 E_vdwl   =       755.8774 
E_coul   =     14691.1481 E_long   =    -19429.8449 Press    =      -163.5337 
Volume   =     10894.7408 
SHAKE stats (type/ave/delta) on step 4660000
  2 1.00003 3.93154e-06
  2 109.47 0.000382849
---------------- Step  4660000 ----- CPU =  12962.4858 (sec) ----------------
TotEng   =     -3334.9158 KinEng   =       639.8333 Temp     =       296.4790 
PotEng   =     -3974.7491 E_bond   =         1.9647 E_angle  =         1.7432 
E_dihed  =         0.0000 E_impro  =         0.0000 E_vdwl   =       775.3917 
E_coul   =     14677.2992 E_long   =    -19431.1480 Press    =       216.8466 
Volume   =     10832.4479 
SHAKE stats (type/ave/delta) on step 4670000
  2 0.999986 1.06578e-05
  2 109.47 0.000848926
---------------- Step  4670000 ----- CPU =  12990.0019 (sec) ----------------
TotEng   =     -3293.9089 KinEng   =       673.7024 Temp     =       312.1729 
PotEng   =     -3967.6113 E_bond   =         0.6997 E_angle  =         2.0196 
E_dihed  =         0.0000 E_impro  =         0.0000 E_vdwl   =       798.5248 
E_coul   =     14654.7414 E_long   =    -19423.5967 Press    =       929.2611 
Volume   =     10750.7582 
SHAKE stats (type/ave/delta) on step 4680000
  2 1.0001 4.71482e-06
  2 109.47 0.000464975
---------------- Step  4680000 ----- CPU =  13019.6029 (sec) ----------------
TotEng   =     -3377.4031 KinEng   =       649.6975 Temp     =       301.0498 
PotEng   =     -4027.1006 E_bond   =         1.1598 E_angle  =         1.4085 
E_dihed  =         0.0000 E_impro  =         0.0000 E_vdwl   =       779.7767 
E_coul   =     14619.8701 E_long   =    -19429.3157 Press    =       -89.2081 
Volume   =     10817.1315 
SHAKE stats (type/ave/delta) on step 4690000
  2 1.00009 5.49936e-06
  2 109.47 0.000556833
---------------- Step  4690000 ----- CPU =  13048.0751 (sec) ----------------
TotEng   =     -3282.5428 KinEng   =       634.4943 Temp     =       294.0051 
PotEng   =     -3917.0371 E_bond   =         0.8447 E_angle  =         2.1641 
E_dihed  =         0.0000 E_impro  =         0.0000 E_vdwl   =       767.7797 
E_coul   =     14739.0167 E_long   =    -19426.8422 Press    =       187.0533 
Volume   =     11001.1652 
SHAKE stats (type/ave/delta) on step 4700000
  2 1.00006 7.03244e-06
  2 109.47 0.000586165
---------------- Step  4700000 ----- CPU =  13076.6895 (sec) ----------------
TotEng   =     -3373.7364 KinEng   =       629.3240 Temp     =       291.6093 
PotEng   =     -4003.0604 E_bond   =         0.9860 E_angle  =         1.6284 
E_dihed  =         0.0000 E_impro  =         0.0000 E_vdwl   =       806.3837 
E_coul   =     14618.0480 E_long   =    -19430.1065 Press    =       831.7002 
Volume   =     10675.1999 
SHAKE stats (type/ave/delta) on step 4710000
  2 1.00005 1.05057e-05
  2 109.47 0.000834979
---------------- Step  4710000 ----- CPU =  13104.9375 (sec) ----------------
TotEng   =     -3345.4463 KinEng   =       654.1399 Temp     =       303.1082 
PotEng   =     -3999.5861 E_bond   =         1.2788 E_angle  =         1.2972 
E_dihed  =         0.0000 E_impro  =         0.0000 E_vdwl   =       802.5931 
E_coul   =     14624.5793 E_long   =    -19429.3345 Press    =       111.0215 
Volume   =     11085.9466 
SHAKE stats (type/ave/delta) on step 4720000
  2 1 4.55625e-06
  2 109.47 0.000417014
---------------- Step  4720000 ----- CPU =  13132.5084 (sec) ----------------
TotEng   =     -3304.8333 KinEng   =       672.2339 Temp     =       311.4925 
PotEng   =     -3977.0672 E_bond   =         1.3137 E_angle  =         0.9653 
E_dihed  =         0.0000 E_impro  =         0.0000 E_vdwl   =       818.1475 
E_coul   =     14631.9450 E_long   =    -19429.4385 Press    =       686.0971 
Volume   =     11215.6148 
SHAKE stats (type/ave/delta) on step 4730000
  2 1 8.91122e-06
  2 109.47 0.00116675
---------------- Step  4730000 ----- CPU =  13162.9571 (sec) ----------------
TotEng   =     -3327.9016 KinEng   =       694.2680 Temp     =       321.7024 
PotEng   =     -4022.1696 E_bond   =         1.6774 E_angle  =         2.0142 
E_dihed  =         0.0000 E_impro  =         0.0000 E_vdwl   =       796.6022 
E_coul   =     14606.7870 E_long   =    -19429.2504 Press    =         0.5049 
Volume   =     10938.5784 
SHAKE stats (type/ave/delta) on step 4740000
  2 0.999996 4.2754e-06
  2 109.47 0.000375021
---------------- Step  4740000 ----- CPU =  13191.7904 (sec) ----------------
TotEng   =     -3318.8188 KinEng   =       631.5370 Temp     =       292.6348 
PotEng   =     -3950.3558 E_bond   =         1.4511 E_angle  =         1.8949 
E_dihed  =         0.0000 E_impro  =         0.0000 E_vdwl   =       784.3452 
E_coul   =     14689.9326 E_long   =    -19427.9796 Press    =       344.8600 
Volume   =     10983.2622 
SHAKE stats (type/ave/delta) on step 4750000
  2 0.999924 5.4547e-06
  2 109.47 0.000436585
---------------- Step  4750000 ----- CPU =  13221.3969 (sec) ----------------
TotEng   =     -3341.3140 KinEng   =       646.7553 Temp     =       299.6865 
PotEng   =     -3988.0693 E_bond   =         0.7003 E_angle  =         3.2265 
E_dihed  =         0.0000 E_impro  =         0.0000 E_vdwl   =       738.6781 
E_coul   =     14696.9554 E_long   =    -19427.6297 Press    =      -719.4519 
Volume   =     10971.4534 
SHAKE stats (type/ave/delta) on step 4760000
  2 0.999994 7.01931e-06
  2 109.47 0.00064262
---------------- Step  4760000 ----- CPU =  13247.6896 (sec) ----------------
TotEng   =     -3404.8284 KinEng   =       638.1001 Temp     =       295.6759 
PotEng   =     -4042.9284 E_bond   =         1.9868 E_angle  =         1.1509 
E_dihed  =         0.0000 E_impro  =         0.0000 E_vdwl   =       785.8896 
E_coul   =     14596.5400 E_long   =    -19428.4957 Press    =      -397.0670 
Volume   =     10895.9346 
SHAKE stats (type/ave/delta) on step 4770000
  2 0.999912 4.02864e-06
  2 109.47 0.00040232
---------------- Step  4770000 ----- CPU =  13273.4226 (sec) ----------------
TotEng   =     -3307.0928 KinEng   =       661.2236 Temp     =       306.3906 
PotEng   =     -3968.3164 E_bond   =         0.5636 E_angle  =         0.9150 
E_dihed  =         0.0000 E_impro  =         0.0000 E_vdwl   =       773.7626 
E_coul   =     14686.0040 E_long   =    -19429.5616 Press    =       210.5834 
Volume   =     10992.9246 
SHAKE stats (type/ave/delta) on step 4780000
  2 1.00005 5.9875e-06
  2 109.47 0.000490332
---------------- Step  4780000 ----- CPU =  13299.5429 (sec) ----------------
TotEng   =     -3356.8258 KinEng   =       674.4971 Temp     =       312.5411 
PotEng   =     -4031.3229 E_bond   =         1.9807 E_angle  =         2.0778 
E_dihed  =         0.0000 E_impro  =         0.0000 E_vdwl   =       824.3775 
E_coul   =     14567.5270 E_long   =    -19427.2859 Press    =      1126.6169 
Volume   =     10763.2388 
SHAKE stats (type/ave/delta) on step 4790000
  2 1.00005 3.74064e-06
  2 109.47 0.000356581
---------------- Step  4790000 ----- CPU =  13325.6977 (sec) ----------------
TotEng   =     -3306.4534 KinEng   =       633.2705 Temp     =       293.4380 
PotEng   =     -3939.7239 E_bond   =         1.0742 E_angle  =         1.9756 
E_dihed  =         0.0000 E_impro  =         0.0000 E_vdwl   =       756.5133 
E_coul   =     14727.7388 E_long   =    -19427.0258 Press    =       507.5502 
Volume   =     10701.3167 
SHAKE stats (type/ave/delta) on step 4800000
  2 0.999981 5.66115e-06
  2 109.47 0.000457628
---------------- Step  4800000 ----- CPU =  13351.6871 (sec) ----------------
TotEng   =     -3378.2779 KinEng   =       634.2460 Temp     =       293.8901 
PotEng   =     -4012.5239 E_bond   =         1.2337 E_angle  =         3.6331 
E_dihed  =         0.0000 E_impro  =         0.0000 E_vdwl   =       759.0438 
E_coul   =     14655.0583 E_long   =    -19431.4927 Press    =      -373.0293 
Volume   =     10865.2205 
SHAKE stats (type/ave/delta) on step 4810000
  2 0.999889 4.10929e-06
  2 109.47 0.00033867
---------------- Step  4810000 ----- CPU =  13379.8784 (sec) ----------------
TotEng   =     -3328.2603 KinEng   =       635.6298 Temp     =       294.5312 
PotEng   =     -3963.8901 E_bond   =         1.6516 E_angle  =         2.5930 
E_dihed  =         0.0000 E_impro  =         0.0000 E_vdwl   =       792.1900 
E_coul   =     14667.8239 E_long   =    -19428.1486 Press    =       843.1511 
Volume   =     10764.5740 
SHAKE stats (type/ave/delta) on step 4820000
  2 0.999996 7.05498e-06
  2 109.47 0.000583086
---------------- Step  4820000 ----- CPU =  13409.1126 (sec) ----------------
TotEng   =     -3389.0101 KinEng   =       630.3791 Temp     =       292.0983 
PotEng   =     -4019.3893 E_bond   =         1.7264 E_angle  =         1.8616 
E_dihed  =         0.0000 E_impro  =         0.0000 E_vdwl   =       769.7276 
E_coul   =     14636.7179 E_long   =    -19429.4227 Press    =      -929.5433 
Volume   =     11123.6512 
SHAKE stats (type/ave/delta) on step 4830000
  2 1.00009 3.84153e-06
  2 109.47 0.000387182
---------------- Step  4830000 ----- CPU =  13437.5548 (sec) ----------------
TotEng   =     -3357.8865 KinEng   =       641.2745 Temp     =       297.1468 
PotEng   =     -3999.1609 E_bond   =         1.0161 E_angle  =         2.0329 
E_dihed  =         0.0000 E_impro  =         0.0000 E_vdwl   =       724.5391 
E_coul   =     14700.7979 E_long   =    -19427.5470 Press    =     -1297.3546 
Volume   =     11059.2309 
SHAKE stats (type/ave/delta) on step 4840000
  2 0.999961 5.0494e-06
  2 109.47 0.000452933
---------------- Step  4840000 ----- CPU =  13466.0647 (sec) ----------------
TotEng   =     -3358.9912 KinEng   =       659.6169 Temp     =       305.6461 
PotEng   =     -4018.6081 E_bond   =         1.0464 E_angle  =         2.4079 
E_dihed  =         0.0000 E_impro  =         0.0000 E_vdwl   =       743.7966 
E_coul   =     14662.7445 E_long   =    -19428.6036 Press    =      -515.6679 
Volume   =     10799.6688 
SHAKE stats (type/ave/delta) on step 4850000
  2 0.999897 5.17531e-06
  2 109.47 0.000455765
---------------- Step  4850000 ----- CPU =  13495.1932 (sec) ----------------
TotEng   =     -3294.7507 KinEng   =       680.8206 Temp     =       315.4713 
PotEng   =     -3975.5713 E_bond   =         1.3254 E_angle  =         0.9525 
E_dihed  =         0.0000 E_impro  =         0.0000 E_vdwl   =       710.8481 
E_coul   =     14740.1104 E_long   =    -19428.8076 Press    =     -1199.4839 
Volume   =     10963.4530 
SHAKE stats (type/ave/delta) on step 4860000
  2 1.00003 1.67128e-05
  2 109.47 0.00123804
---------------- Step  4860000 ----- CPU =  13523.2175 (sec) ----------------
TotEng   =     -3293.8087 KinEng   =       637.3011 Temp     =       295.3057 
PotEng   =     -3931.1099 E_bond   =         0.9614 E_angle  =         1.6004 
E_dihed  =         0.0000 E_impro  =         0.0000 E_vdwl   =       762.0645 
E_coul   =     14729.3888 E_long   =    -19425.1248 Press    =       203.8844 
Volume   =     10911.9202 
SHAKE stats (type/ave/delta) on step 4870000
  2 1.00008 5.7449e-06
  2 109.47 0.00052254
---------------- Step  4870000 ----- CPU =  13551.3291 (sec) ----------------
TotEng   =     -3354.8290 KinEng   =       646.8675 Temp     =       299.7385 
PotEng   =     -4001.6964 E_bond   =         1.4405 E_angle  =         1.6949 
E_dihed  =         0.0000 E_impro  =         0.0000 E_vdwl   =       751.0295 
E_coul   =     14670.5134 E_long   =    -19426.3747 Press    =      -750.0138 
Volume   =     10954.4676 
SHAKE stats (type/ave/delta) on step 4880000
  2 0.99997 6.30625e-06
  2 109.47 0.000654021
---------------- Step  4880000 ----- CPU =  13579.5980 (sec) ----------------
TotEng   =     -3367.3096 KinEng   =       610.0211 Temp     =       282.6650 
PotEng   =     -3977.3307 E_bond   =         1.5845 E_angle  =         2.3884 
E_dihed  =         0.0000 E_impro  =         0.0000 E_vdwl   =       815.1420 
E_coul   =     14633.4653 E_long   =    -19429.9109 Press    =       829.0710 
Volume   =     10971.8715 
SHAKE stats (type/ave/delta) on step 4890000
  2 0.99992 8.1489e-06
  2 109.47 0.000776623
---------------- Step  4890000 ----- CPU =  13608.2064 (sec) ----------------
TotEng   =     -3286.1275 KinEng   =       682.9121 Temp     =       316.4404 
PotEng   =     -3969.0396 E_bond   =         1.0662 E_angle  =         0.8102 
E_dihed  =         0.0000 E_impro  =         0.0000 E_vdwl   =       722.6118 
E_coul   =     14733.3811 E_long   =    -19426.9089 Press    =     -1146.4678 
Volume   =     10989.0620 
SHAKE stats (type/ave/delta) on step 4900000
  2 1.00009 6.71748e-06
  2 109.47 0.000720439
---------------- Step  4900000 ----- CPU =  13636.4401 (sec) ----------------
TotEng   =     -3302.4860 KinEng   =       680.5641 Temp     =       315.3524 
PotEng   =     -3983.0501 E_bond   =         0.8768 E_angle  =         1.0837 
E_dihed  =         0.0000 E_impro  =         0.0000 E_vdwl   =       836.6912 
E_coul   =     14606.2512 E_long   =    -19427.9530 Press    =      1467.3114 
Volume   =     10865.8398 
SHAKE stats (type/ave/delta) on step 4910000
  2 0.999967 6.48504e-06
  2 109.47 0.00045184
---------------- Step  4910000 ----- CPU =  13665.9013 (sec) ----------------
TotEng   =     -3373.8247 KinEng   =       639.7770 Temp     =       296.4529 
PotEng   =     -4013.6017 E_bond   =         0.3625 E_angle  =         1.1882 
E_dihed  =         0.0000 E_impro  =         0.0000 E_vdwl   =       802.4372 
E_coul   =     14612.0654 E_long   =    -19429.6549 Press    =       652.2005 
Volume   =     10823.4531 
SHAKE stats (type/ave/delta) on step 4920000
  2 0.999983 4.71655e-06
  2 109.47 0.000400722
---------------- Step  4920000 ----- CPU =  13694.6008 (sec) ----------------
TotEng   =     -3348.0926 KinEng   =       639.5091 Temp     =       296.3288 
PotEng   =     -3987.6017 E_bond   =         1.1497 E_angle  =         1.6153 
E_dihed  =         0.0000 E_impro  =         0.0000 E_vdwl   =       769.1075 
E_coul   =     14669.7709 E_long   =    -19429.2451 Press    =      -625.4517 
Volume   =     11220.6995 
SHAKE stats (type/ave/delta) on step 4930000
  2 0.99996 3.6643e-06
  2 109.47 0.000391861
---------------- Step  4930000 ----- CPU =  13721.7595 (sec) ----------------
TotEng   =     -3369.6127 KinEng   =       647.0313 Temp     =       299.8143 
PotEng   =     -4016.6439 E_bond   =         0.8673 E_angle  =         1.6128 
E_dihed  =         0.0000 E_impro  =         0.0000 E_vdwl   =       789.6945 
E_coul   =     14620.8373 E_long   =    -19429.6557 Press    =       380.6287 
Volume   =     10839.9019 
SHAKE stats (type/ave/delta) on step 4940000
  2 1.00011 5.62109e-06
  2 109.47 0.000471412
---------------- Step  4940000 ----- CPU =  13749.5570 (sec) ----------------
TotEng   =     -3355.0186 KinEng   =       642.8185 Temp     =       297.8623 
PotEng   =     -3997.8372 E_bond   =         0.6205 E_angle  =         1.8695 
E_dihed  =         0.0000 E_impro  =         0.0000 E_vdwl   =       771.2536 
E_coul   =     14658.6051 E_long   =    -19430.1859 Press    =      -122.2742 
Volume   =     10989.7229 
SHAKE stats (type/ave/delta) on step 4950000
  2 1.00018 5.94575e-06
  2 109.47 0.000567387
---------------- Step  4950000 ----- CPU =  13777.1559 (sec) ----------------
TotEng   =     -3363.5742 KinEng   =       650.2462 Temp     =       301.3040 
PotEng   =     -4013.8204 E_bond   =         0.9455 E_angle  =         1.2911 
E_dihed  =         0.0000 E_impro  =         0.0000 E_vdwl   =       786.8175 
E_coul   =     14622.9241 E_long   =    -19425.7986 Press    =       149.2216 
Volume   =     11047.8595 
SHAKE stats (type/ave/delta) on step 4960000
  2 1.00008 4.67394e-06
  2 109.47 0.000356039
---------------- Step  4960000 ----- CPU =  13805.6570 (sec) ----------------
TotEng   =     -3363.7638 KinEng   =       635.1083 Temp     =       294.2896 
PotEng   =     -3998.8722 E_bond   =         0.6117 E_angle  =         2.3009 
E_dihed  =         0.0000 E_impro  =         0.0000 E_vdwl   =       790.7280 
E_coul   =     14635.1815 E_long   =    -19427.6943 Press    =        74.7190 
Volume   =     10951.3511 
SHAKE stats (type/ave/delta) on step 4970000
  2 1.00001 9.33252e-06
  2 109.47 0.000534436
---------------- Step  4970000 ----- CPU =  13834.0974 (sec) ----------------
TotEng   =     -3337.4508 KinEng   =       660.8260 Temp     =       306.2064 
PotEng   =     -3998.2767 E_bond   =         0.9209 E_angle  =         2.3631 
E_dihed  =         0.0000 E_impro  =         0.0000 E_vdwl   =       804.7987 
E_coul   =     14623.3505 E_long   =    -19429.7099 Press    =       300.6431 
Volume   =     10981.6807 
SHAKE stats (type/ave/delta) on step 4980000
  2 0.99988 7.13451e-06
  2 109.47 0.000775245
---------------- Step  4980000 ----- CPU =  13862.1665 (sec) ----------------
TotEng   =     -3357.8177 KinEng   =       653.2814 Temp     =       302.7105 
PotEng   =     -4011.0991 E_bond   =         0.2776 E_angle  =         0.9640 
E_dihed  =         0.0000 E_impro  =         0.0000 E_vdwl   =       775.2050 
E_coul   =     14639.3079 E_long   =    -19426.8537 Press    =        32.0722 
Volume   =     10756.7163 
SHAKE stats (type/ave/delta) on step 4990000
  2 1.00016 5.92491e-06
  2 109.47 0.00043234
---------------- Step  4990000 ----- CPU =  13891.7781 (sec) ----------------
TotEng   =     -3364.0730 KinEng   =       615.8128 Temp     =       285.3487 
PotEng   =     -3979.8858 E_bond   =         1.6921 E_angle  =         2.5550 
E_dihed  =         0.0000 E_impro  =         0.0000 E_vdwl   =       722.0002 
E_coul   =     14721.8710 E_long   =    -19428.0042 Press    =      -750.1906 
Volume   =     10779.8967 
SHAKE stats (type/ave/delta) on step 5000000
  2 0.999999 7.69945e-06
  2 109.47 0.000908606
---------------- Step  5000000 ----- CPU =  13920.3238 (sec) ----------------
TotEng   =     -3416.5266 KinEng   =       621.1557 Temp     =       287.8244 
PotEng   =     -4037.6823 E_bond   =         1.1951 E_angle  =         0.9788 
E_dihed  =         0.0000 E_impro  =         0.0000 E_vdwl   =       740.2271 
E_coul   =     14647.3285 E_long   =    -19427.4118 Press    =     -1175.6477 
Volume   =     10950.7033 
Loop time of 13920.3 on 8 procs for 5000000 steps with 1085 atoms

Pair  time (%) = 7182.19 (51.595)
Bond  time (%) = 3.48513 (0.0250363)
Kspce time (%) = 2528.89 (18.1669)
Neigh time (%) = 963.894 (6.92437)
Comm  time (%) = 1441.47 (10.3552)
Outpt time (%) = 0.223056 (0.00160237)
Other time (%) = 1800.17 (12.932)

FFT time (% of Kspce) = 325.53 (12.8724)
FFT Gflps 3d (1d only) = 3.95716 53.0614

Nlocal:    135.625 ave 144 max 125 min
Histogram: 1 0 1 1 1 0 1 0 2 1
Nghost:    4125.62 ave 4190 max 4068 min
Histogram: 2 1 0 0 0 2 1 0 1 1
Neighs:    48620.4 ave 52447 max 44422 min
Histogram: 1 0 1 1 0 2 0 2 0 1

Total # of neighbors = 388963
Ave neighs/atom = 358.491
Ave special neighs/atom = 2.00922
Neighbor list builds = 412483
Dangerous builds = 66062

write_restart restart.*.lmp
PPPM initialization ...
  G vector (1/distance) = 0.267547
  grid = 12 12 12
  stencil order = 5
  estimated absolute RMS force accuracy = 0.0260527
  estimated relative force accuracy = 7.8457e-05
  using double precision FFTs
  3d grid and FFT values/proc = 2197 288
write_data data.*.lmp
PPPM initialization ...
  G vector (1/distance) = 0.267547
  grid = 12 12 12
  stencil order = 5
  estimated absolute RMS force accuracy = 0.0260527
  estimated relative force accuracy = 7.8457e-05
  using double precision FFTs
  3d grid and FFT values/proc = 2197 288
