LAMMPS (11 Nov 2013)
# created by fftool

print "Methane in TIP4P water"
Methane in TIP4P water

units real
boundary p p p

atom_style full
bond_style harmonic
angle_style harmonic
special_bonds lj/coul 0.0 0.0 0.5

read_data data.lmp
  1 = max bonds/atom
  6 = max angles/atom
  orthogonal box = (-13.4438 -13.4438 -13.4438) to (13.4438 13.4438 13.4438)
  2 by 2 by 2 MPI processor grid
  1085 atoms
  724 bonds
  366 angles
  4 = max # of 1-2 neighbors
  3 = max # of 1-3 neighbors
  3 = max # of 1-4 neighbors
  4 = max # of special neighbors

pair_style hybrid   lj/cut/coul/long 10.0 10.0   lj/cut/tip4p/long/soft 3 4 2 2 0.125 1 0.5 10.0 10.0 10.0
pair_modify tail no
kspace_style pppm 1.0e-4

pair_coeff    1    1  lj/cut/coul/long    0.0660   3.5000  # C4H C4H
pair_coeff    1    2  lj/cut/coul/long    0.0445   2.9580  # C4H H
pair_coeff    2    2  lj/cut/coul/long    0.0300   2.5000  # H H
pair_coeff    3    3  lj/cut/tip4p/long/soft   0.1628   3.1644  1.0  # Ow Ow
pair_coeff    3    4  lj/cut/tip4p/long/soft   0.0000   1.0000  1.0  # Ow Hw
pair_coeff    4    4  lj/cut/tip4p/long/soft   0.0000   1.0000  1.0  # Hw Hw

pair_coeff    1    3  lj/cut/tip4p/long/soft   0.1036   3.3279  1.0  # C4H Ow
pair_coeff    1    4  lj/cut/tip4p/long/soft   0.0000   1.0000  1.0  # C4H Hw
pair_coeff    2    3  lj/cut/tip4p/long/soft   0.0699   2.8126  1.0  # H Ow
pair_coeff    2    4  lj/cut/tip4p/long/soft   0.0000   1.0000  1.0  # H Hw

variable nsteps equal 2500000
variable nprint equal ${nsteps}/500
variable nprint equal 2500000/500
variable ndump equal ${nsteps}/100
variable ndump equal 2500000/100

variable temp equal 300.0
variable press equal 1.0

fix fSHAKE all shake 0.0001 20 ${nprint} b 2 a 2
fix fSHAKE all shake 0.0001 20 5000 b 2 a 2
  0 = # of size 2 clusters
  0 = # of size 3 clusters
  0 = # of size 4 clusters
  360 = # of frozen angles

neighbor 2.0 bin

timestep 2.0

# velocity all create ${temp} 12345

thermo_style multi
thermo ${nprint}
thermo 5000

fix fNPT all npt temp ${temp} ${temp} 100 iso ${press} ${press} 1000
fix fNPT all npt temp 300 ${temp} 100 iso ${press} ${press} 1000
fix fNPT all npt temp 300 300 100 iso ${press} ${press} 1000
fix fNPT all npt temp 300 300 100 iso 1 ${press} 1000
fix fNPT all npt temp 300 300 100 iso 1 1 1000

run 250000
PPPM initialization ...
  G vector (1/distance) = 0.270215
  grid = 15 15 15
  stencil order = 5
  estimated absolute RMS force accuracy = 0.0258727
  estimated relative force accuracy = 7.7915e-05
  using double precision FFTs
  3d grid and FFT values/proc = 2744 512
SHAKE stats (type/ave/delta) on step 0
  2 0.9572 1.71599e-05
  2 104.52 0.00161974
Memory usage per processor = 6.56628 Mbytes
---------------- Step        0 ----- CPU =      0.0000 (sec) ----------------
TotEng   =        20.8282 KinEng   =         0.0000 Temp     =         0.0000 
PotEng   =        20.8282 E_bond   =         0.0000 E_angle  =         0.1685 
E_dihed  =         0.0000 E_impro  =         0.0000 E_vdwl   =      -205.3630 
E_coul   =     29920.6270 E_long   =    -29694.6044 Press    =       550.1453 
Volume   =     19438.0383 
SHAKE stats (type/ave/delta) on step 5000
  2 0.957018 1.06525e-05
  2 104.52 0.000580725
---------------- Step     5000 ----- CPU =     80.6246 (sec) ----------------
TotEng   =     -3228.2729 KinEng   =       663.5472 Temp     =       307.4673 
PotEng   =     -3891.8201 E_bond   =         0.0424 E_angle  =         0.9317 
E_dihed  =         0.0000 E_impro  =         0.0000 E_vdwl   =       712.1392 
E_coul   =     25409.0137 E_long   =    -30013.9471 Press    =      -348.0460 
Volume   =     11302.1373 
SHAKE stats (type/ave/delta) on step 10000
  2 0.957011 5.26406e-06
  2 104.52 0.000406237
---------------- Step    10000 ----- CPU =    171.2801 (sec) ----------------
TotEng   =     -3400.0021 KinEng   =       647.8072 Temp     =       300.1739 
PotEng   =     -4047.8093 E_bond   =         0.0686 E_angle  =         1.1315 
E_dihed  =         0.0000 E_impro  =         0.0000 E_vdwl   =       794.3933 
E_coul   =     25169.3205 E_long   =    -30012.7233 Press    =       385.0933 
Volume   =     10935.8228 
SHAKE stats (type/ave/delta) on step 15000
  2 0.957001 6.76545e-06
  2 104.52 0.00058556
---------------- Step    15000 ----- CPU =    263.5116 (sec) ----------------
TotEng   =     -3288.8357 KinEng   =       667.6407 Temp     =       309.3641 
PotEng   =     -3956.4765 E_bond   =         0.2794 E_angle  =         0.9593 
E_dihed  =         0.0000 E_impro  =         0.0000 E_vdwl   =       763.6685 
E_coul   =     25293.0071 E_long   =    -30014.3908 Press    =       981.8247 
Volume   =     10681.9153 
SHAKE stats (type/ave/delta) on step 20000
  2 0.957078 5.69593e-06
  2 104.52 0.000461997
---------------- Step    20000 ----- CPU =    352.6367 (sec) ----------------
TotEng   =     -3282.6993 KinEng   =       654.6913 Temp     =       303.3638 
PotEng   =     -3937.3907 E_bond   =         0.6807 E_angle  =         2.2909 
E_dihed  =         0.0000 E_impro  =         0.0000 E_vdwl   =       722.7055 
E_coul   =     25347.7760 E_long   =    -30010.8438 Press    =        -1.0436 
Volume   =     10919.6365 
SHAKE stats (type/ave/delta) on step 25000
  2 0.957023 1.15918e-05
  2 104.52 0.000872129
---------------- Step    25000 ----- CPU =    443.6963 (sec) ----------------
TotEng   =     -3325.6779 KinEng   =       650.8127 Temp     =       301.5665 
PotEng   =     -3976.4905 E_bond   =         0.8095 E_angle  =         0.7220 
E_dihed  =         0.0000 E_impro  =         0.0000 E_vdwl   =       777.3888 
E_coul   =     25256.4526 E_long   =    -30011.8634 Press    =       147.2486 
Volume   =     10994.2886 
SHAKE stats (type/ave/delta) on step 30000
  2 0.956986 4.66289e-06
  2 104.52 0.000463321
---------------- Step    30000 ----- CPU =    538.8954 (sec) ----------------
TotEng   =     -3278.0226 KinEng   =       630.9040 Temp     =       292.3414 
PotEng   =     -3908.9266 E_bond   =         0.6075 E_angle  =         0.8699 
E_dihed  =         0.0000 E_impro  =         0.0000 E_vdwl   =       677.8577 
E_coul   =     25420.6177 E_long   =    -30008.8794 Press    =     -1050.7796 
Volume   =     11002.2760 
SHAKE stats (type/ave/delta) on step 35000
  2 0.957043 6.08474e-06
  2 104.52 0.000543586
---------------- Step    35000 ----- CPU =    617.0211 (sec) ----------------
TotEng   =     -3253.3821 KinEng   =       642.9206 Temp     =       297.9096 
PotEng   =     -3896.3027 E_bond   =         1.1713 E_angle  =         0.7705 
E_dihed  =         0.0000 E_impro  =         0.0000 E_vdwl   =       654.7348 
E_coul   =     25454.6000 E_long   =    -30007.5793 Press    =     -1537.6206 
Volume   =     11239.8390 
SHAKE stats (type/ave/delta) on step 40000
  2 0.95698 5.76148e-06
  2 104.52 0.00053626
---------------- Step    40000 ----- CPU =    701.3004 (sec) ----------------
TotEng   =     -3325.1906 KinEng   =       632.3024 Temp     =       292.9894 
PotEng   =     -3957.4930 E_bond   =         0.7217 E_angle  =         2.2875 
E_dihed  =         0.0000 E_impro  =         0.0000 E_vdwl   =       737.7962 
E_coul   =     25312.9796 E_long   =    -30011.2780 Press    =       -82.8667 
Volume   =     10925.1626 
SHAKE stats (type/ave/delta) on step 45000
  2 0.956953 7.207e-06
  2 104.52 0.000557292
---------------- Step    45000 ----- CPU =    777.6064 (sec) ----------------
TotEng   =     -3229.0064 KinEng   =       662.5086 Temp     =       306.9860 
PotEng   =     -3891.5150 E_bond   =         1.3919 E_angle  =         2.3010 
E_dihed  =         0.0000 E_impro  =         0.0000 E_vdwl   =       716.9654 
E_coul   =     25396.9175 E_long   =    -30009.0908 Press    =         4.0512 
Volume   =     11125.3319 
SHAKE stats (type/ave/delta) on step 50000
  2 0.956982 1.38523e-05
  2 104.52 0.000897253
---------------- Step    50000 ----- CPU =    864.8347 (sec) ----------------
TotEng   =     -3343.3161 KinEng   =       634.6412 Temp     =       294.0732 
PotEng   =     -3977.9573 E_bond   =         1.3863 E_angle  =         1.0458 
E_dihed  =         0.0000 E_impro  =         0.0000 E_vdwl   =       769.9960 
E_coul   =     25262.4562 E_long   =    -30012.8416 Press    =       331.7058 
Volume   =     11036.5016 
SHAKE stats (type/ave/delta) on step 55000
  2 0.956974 4.87139e-06
  2 104.52 0.000426068
---------------- Step    55000 ----- CPU =    948.3662 (sec) ----------------
TotEng   =     -3307.5066 KinEng   =       633.0386 Temp     =       293.3306 
PotEng   =     -3940.5452 E_bond   =         1.6886 E_angle  =         2.0573 
E_dihed  =         0.0000 E_impro  =         0.0000 E_vdwl   =       722.9956 
E_coul   =     25346.0976 E_long   =    -30013.3843 Press    =      -810.4119 
Volume   =     11194.4126 
SHAKE stats (type/ave/delta) on step 60000
  2 0.956972 9.18811e-06
  2 104.52 0.000954828
---------------- Step    60000 ----- CPU =   1034.9790 (sec) ----------------
TotEng   =     -3216.9513 KinEng   =       694.1833 Temp     =       321.6631 
PotEng   =     -3911.1346 E_bond   =         1.3294 E_angle  =         3.2358 
E_dihed  =         0.0000 E_impro  =         0.0000 E_vdwl   =       703.9431 
E_coul   =     25393.7273 E_long   =    -30013.3701 Press    =      -506.2574 
Volume   =     10999.1550 
SHAKE stats (type/ave/delta) on step 65000
  2 0.957087 5.05247e-06
  2 104.52 0.000495234
---------------- Step    65000 ----- CPU =   1121.3174 (sec) ----------------
TotEng   =     -3299.4667 KinEng   =       646.1449 Temp     =       299.4036 
PotEng   =     -3945.6116 E_bond   =         0.7674 E_angle  =         1.6863 
E_dihed  =         0.0000 E_impro  =         0.0000 E_vdwl   =       803.6747 
E_coul   =     25260.4952 E_long   =    -30012.2352 Press    =      1072.5591 
Volume   =     11163.8467 
SHAKE stats (type/ave/delta) on step 70000
  2 0.956977 1.2593e-05
  2 104.52 0.000862395
---------------- Step    70000 ----- CPU =   1208.6816 (sec) ----------------
TotEng   =     -3226.3087 KinEng   =       674.6422 Temp     =       312.6084 
PotEng   =     -3900.9509 E_bond   =         0.6403 E_angle  =         0.9801 
E_dihed  =         0.0000 E_impro  =         0.0000 E_vdwl   =       714.4600 
E_coul   =     25393.9811 E_long   =    -30011.0124 Press    =       -68.0623 
Volume   =     11122.5464 
SHAKE stats (type/ave/delta) on step 75000
  2 0.957025 1.01028e-05
  2 104.52 0.00146803
---------------- Step    75000 ----- CPU =   1293.6940 (sec) ----------------
TotEng   =     -3356.8422 KinEng   =       649.1978 Temp     =       300.8182 
PotEng   =     -4006.0400 E_bond   =         0.7418 E_angle  =         1.4568 
E_dihed  =         0.0000 E_impro  =         0.0000 E_vdwl   =       734.5388 
E_coul   =     25271.2954 E_long   =    -30014.0727 Press    =        59.1017 
Volume   =     10628.7958 
SHAKE stats (type/ave/delta) on step 80000
  2 0.957016 5.05052e-06
  2 104.52 0.000481818
---------------- Step    80000 ----- CPU =   1381.0215 (sec) ----------------
TotEng   =     -3315.8902 KinEng   =       646.2608 Temp     =       299.4573 
PotEng   =     -3962.1509 E_bond   =         0.2875 E_angle  =         2.5869 
E_dihed  =         0.0000 E_impro  =         0.0000 E_vdwl   =       786.6953 
E_coul   =     25261.0105 E_long   =    -30012.7312 Press    =       505.3987 
Volume   =     11012.1216 
SHAKE stats (type/ave/delta) on step 85000
  2 0.957006 6.56374e-06
  2 104.52 0.000643258
---------------- Step    85000 ----- CPU =   1462.6165 (sec) ----------------
TotEng   =     -3317.7569 KinEng   =       661.6676 Temp     =       306.5964 
PotEng   =     -3979.4245 E_bond   =         0.7139 E_angle  =         1.5130 
E_dihed  =         0.0000 E_impro  =         0.0000 E_vdwl   =       791.1270 
E_coul   =     25239.3760 E_long   =    -30012.1544 Press    =       536.7214 
Volume   =     11040.7967 
SHAKE stats (type/ave/delta) on step 90000
  2 0.957044 9.10572e-06
  2 104.52 0.00071597
---------------- Step    90000 ----- CPU =   1546.8077 (sec) ----------------
TotEng   =     -3250.3775 KinEng   =       687.7954 Temp     =       318.7032 
PotEng   =     -3938.1729 E_bond   =         0.4932 E_angle  =         1.3707 
E_dihed  =         0.0000 E_impro  =         0.0000 E_vdwl   =       766.8195 
E_coul   =     25304.5162 E_long   =    -30011.3726 Press    =       564.8550 
Volume   =     11186.4184 
SHAKE stats (type/ave/delta) on step 95000
  2 0.956976 1.19044e-05
  2 104.52 0.00104837
---------------- Step    95000 ----- CPU =   1631.1649 (sec) ----------------
TotEng   =     -3316.5144 KinEng   =       633.9669 Temp     =       293.7607 
PotEng   =     -3950.4813 E_bond   =         1.1023 E_angle  =         0.3793 
E_dihed  =         0.0000 E_impro  =         0.0000 E_vdwl   =       723.5922 
E_coul   =     25336.1417 E_long   =    -30011.6968 Press    =      -661.7880 
Volume   =     11221.9025 
SHAKE stats (type/ave/delta) on step 100000
  2 0.957033 1.10375e-05
  2 104.52 0.000862499
---------------- Step   100000 ----- CPU =   1705.8355 (sec) ----------------
TotEng   =     -3293.4011 KinEng   =       648.1475 Temp     =       300.3316 
PotEng   =     -3941.5486 E_bond   =         0.6433 E_angle  =         1.9647 
E_dihed  =         0.0000 E_impro  =         0.0000 E_vdwl   =       731.9485 
E_coul   =     25333.8487 E_long   =    -30009.9538 Press    =      -142.8481 
Volume   =     11128.6477 
SHAKE stats (type/ave/delta) on step 105000
  2 0.956946 4.381e-06
  2 104.52 0.00040874
---------------- Step   105000 ----- CPU =   1780.3098 (sec) ----------------
TotEng   =     -3283.6706 KinEng   =       657.2706 Temp     =       304.5589 
PotEng   =     -3940.9412 E_bond   =         1.2752 E_angle  =         0.5849 
E_dihed  =         0.0000 E_impro  =         0.0000 E_vdwl   =       727.8735 
E_coul   =     25341.3945 E_long   =    -30012.0692 Press    =      -286.8105 
Volume   =     11093.6006 
SHAKE stats (type/ave/delta) on step 110000
  2 0.957018 7.35358e-06
  2 104.52 0.000535244
---------------- Step   110000 ----- CPU =   1865.3661 (sec) ----------------
TotEng   =     -3291.9229 KinEng   =       660.2876 Temp     =       305.9569 
PotEng   =     -3952.2105 E_bond   =         1.2071 E_angle  =         1.3635 
E_dihed  =         0.0000 E_impro  =         0.0000 E_vdwl   =       768.9845 
E_coul   =     25286.9767 E_long   =    -30010.7423 Press    =       925.6150 
Volume   =     10752.2102 
SHAKE stats (type/ave/delta) on step 115000
  2 0.956962 7.5151e-06
  2 104.52 0.000627475
---------------- Step   115000 ----- CPU =   1949.1447 (sec) ----------------
TotEng   =     -3323.4546 KinEng   =       639.4867 Temp     =       296.3184 
PotEng   =     -3962.9413 E_bond   =         1.2426 E_angle  =         1.1049 
E_dihed  =         0.0000 E_impro  =         0.0000 E_vdwl   =       741.0661 
E_coul   =     25306.4286 E_long   =    -30012.7834 Press    =       -76.9665 
Volume   =     10899.1770 
SHAKE stats (type/ave/delta) on step 120000
  2 0.957069 4.79205e-06
  2 104.52 0.000468583
---------------- Step   120000 ----- CPU =   2031.1464 (sec) ----------------
TotEng   =     -3303.3304 KinEng   =       627.9785 Temp     =       290.9859 
PotEng   =     -3931.3089 E_bond   =         0.7586 E_angle  =         1.2338 
E_dihed  =         0.0000 E_impro  =         0.0000 E_vdwl   =       734.5628 
E_coul   =     25341.2456 E_long   =    -30009.1097 Press    =      -651.4073 
Volume   =     11407.5671 
SHAKE stats (type/ave/delta) on step 125000
  2 0.957057 4.72885e-06
  2 104.52 0.000432646
---------------- Step   125000 ----- CPU =   2111.6074 (sec) ----------------
TotEng   =     -3217.6368 KinEng   =       686.9634 Temp     =       318.3177 
PotEng   =     -3904.6002 E_bond   =         1.2441 E_angle  =         0.9228 
E_dihed  =         0.0000 E_impro  =         0.0000 E_vdwl   =       726.8215 
E_coul   =     25377.8433 E_long   =    -30011.4320 Press    =       376.8099 
Volume   =     10788.1212 
SHAKE stats (type/ave/delta) on step 130000
  2 0.956977 8.47557e-06
  2 104.52 0.000686901
---------------- Step   130000 ----- CPU =   2191.9971 (sec) ----------------
TotEng   =     -3373.2421 KinEng   =       628.5753 Temp     =       291.2624 
PotEng   =     -4001.8174 E_bond   =         1.8135 E_angle  =         0.6765 
E_dihed  =         0.0000 E_impro  =         0.0000 E_vdwl   =       792.5337 
E_coul   =     25216.2761 E_long   =    -30013.1172 Press    =       840.9303 
Volume   =     10803.6121 
SHAKE stats (type/ave/delta) on step 135000
  2 0.957 4.84271e-06
  2 104.52 0.000399858
---------------- Step   135000 ----- CPU =   2277.9763 (sec) ----------------
TotEng   =     -3339.7136 KinEng   =       646.3247 Temp     =       299.4869 
PotEng   =     -3986.0384 E_bond   =         1.4048 E_angle  =         1.1539 
E_dihed  =         0.0000 E_impro  =         0.0000 E_vdwl   =       754.6084 
E_coul   =     25269.1987 E_long   =    -30012.4042 Press    =      -249.5100 
Volume   =     11105.0576 
SHAKE stats (type/ave/delta) on step 140000
  2 0.956925 7.29246e-06
  2 104.52 0.000429928
---------------- Step   140000 ----- CPU =   2360.2466 (sec) ----------------
TotEng   =     -3280.9749 KinEng   =       643.2417 Temp     =       298.0584 
PotEng   =     -3924.2166 E_bond   =         0.3481 E_angle  =         1.5228 
E_dihed  =         0.0000 E_impro  =         0.0000 E_vdwl   =       743.2913 
E_coul   =     25339.0412 E_long   =    -30008.4200 Press    =       309.1297 
Volume   =     10928.2999 
SHAKE stats (type/ave/delta) on step 145000
  2 0.957036 5.85277e-06
  2 104.52 0.000408468
---------------- Step   145000 ----- CPU =   2451.6645 (sec) ----------------
TotEng   =     -3309.7579 KinEng   =       656.7992 Temp     =       304.3405 
PotEng   =     -3966.5571 E_bond   =         2.7394 E_angle  =         1.0281 
E_dihed  =         0.0000 E_impro  =         0.0000 E_vdwl   =       757.5804 
E_coul   =     25283.0020 E_long   =    -30010.9070 Press    =        75.3592 
Volume   =     10813.0025 
SHAKE stats (type/ave/delta) on step 150000
  2 0.956973 5.31497e-06
  2 104.52 0.000402213
---------------- Step   150000 ----- CPU =   2535.1448 (sec) ----------------
TotEng   =     -3267.7599 KinEng   =       633.4831 Temp     =       293.5365 
PotEng   =     -3901.2430 E_bond   =         2.3075 E_angle  =         1.4208 
E_dihed  =         0.0000 E_impro  =         0.0000 E_vdwl   =       692.0908 
E_coul   =     25412.9484 E_long   =    -30010.0106 Press    =      -325.4910 
Volume   =     11002.7070 
SHAKE stats (type/ave/delta) on step 155000
  2 0.957016 5.11146e-06
  2 104.52 0.000446882
---------------- Step   155000 ----- CPU =   2610.9514 (sec) ----------------
TotEng   =     -3226.5618 KinEng   =       640.7775 Temp     =       296.9166 
PotEng   =     -3867.3393 E_bond   =         0.3913 E_angle  =         2.3822 
E_dihed  =         0.0000 E_impro  =         0.0000 E_vdwl   =       703.4116 
E_coul   =     25437.2855 E_long   =    -30010.8099 Press    =       208.1017 
Volume   =     10822.0969 
SHAKE stats (type/ave/delta) on step 160000
  2 0.957032 5.02467e-06
  2 104.52 0.000453591
---------------- Step   160000 ----- CPU =   2686.0560 (sec) ----------------
TotEng   =     -3361.3403 KinEng   =       639.2962 Temp     =       296.2301 
PotEng   =     -4000.6365 E_bond   =         0.9378 E_angle  =         0.5288 
E_dihed  =         0.0000 E_impro  =         0.0000 E_vdwl   =       777.5251 
E_coul   =     25233.5421 E_long   =    -30013.1703 Press    =       629.0410 
Volume   =     10876.7603 
SHAKE stats (type/ave/delta) on step 165000
  2 0.957004 6.81875e-06
  2 104.52 0.000891593
---------------- Step   165000 ----- CPU =   2763.4481 (sec) ----------------
TotEng   =     -3347.6334 KinEng   =       651.1870 Temp     =       301.7400 
PotEng   =     -3998.8204 E_bond   =         0.9920 E_angle  =         1.3514 
E_dihed  =         0.0000 E_impro  =         0.0000 E_vdwl   =       814.8511 
E_coul   =     25198.1869 E_long   =    -30014.2017 Press    =       992.6448 
Volume   =     10932.8562 
SHAKE stats (type/ave/delta) on step 170000
  2 0.957038 6.12484e-06
  2 104.52 0.000624945
---------------- Step   170000 ----- CPU =   2845.1847 (sec) ----------------
TotEng   =     -3288.5060 KinEng   =       678.9857 Temp     =       314.6210 
PotEng   =     -3967.4917 E_bond   =         0.4178 E_angle  =         2.5532 
E_dihed  =         0.0000 E_impro  =         0.0000 E_vdwl   =       760.9012 
E_coul   =     25281.8564 E_long   =    -30013.2203 Press    =       370.1966 
Volume   =     10945.6049 
SHAKE stats (type/ave/delta) on step 175000
  2 0.956992 7.85392e-06
  2 104.52 0.000408619
---------------- Step   175000 ----- CPU =   2929.1363 (sec) ----------------
TotEng   =     -3293.9042 KinEng   =       659.7811 Temp     =       305.7222 
PotEng   =     -3953.6853 E_bond   =         0.3335 E_angle  =         1.0595 
E_dihed  =         0.0000 E_impro  =         0.0000 E_vdwl   =       696.3312 
E_coul   =     25360.5836 E_long   =    -30011.9931 Press    =      -830.2320 
Volume   =     10940.4376 
SHAKE stats (type/ave/delta) on step 180000
  2 0.956979 5.75109e-06
  2 104.52 0.000548793
---------------- Step   180000 ----- CPU =   3016.9104 (sec) ----------------
TotEng   =     -3337.5456 KinEng   =       591.7685 Temp     =       274.2073 
PotEng   =     -3929.3141 E_bond   =         0.6660 E_angle  =         0.9130 
E_dihed  =         0.0000 E_impro  =         0.0000 E_vdwl   =       779.4208 
E_coul   =     25303.0179 E_long   =    -30013.3319 Press    =      1421.8611 
Volume   =     10747.9037 
SHAKE stats (type/ave/delta) on step 185000
  2 0.957041 5.80994e-06
  2 104.52 0.000460922
---------------- Step   185000 ----- CPU =   3104.5972 (sec) ----------------
TotEng   =     -3299.3650 KinEng   =       645.3334 Temp     =       299.0276 
PotEng   =     -3944.6984 E_bond   =         0.6642 E_angle  =         2.0997 
E_dihed  =         0.0000 E_impro  =         0.0000 E_vdwl   =       771.7508 
E_coul   =     25289.7332 E_long   =    -30008.9463 Press    =       381.2185 
Volume   =     11056.2649 
SHAKE stats (type/ave/delta) on step 190000
  2 0.956996 6.72285e-06
  2 104.52 0.000477472
---------------- Step   190000 ----- CPU =   3191.0362 (sec) ----------------
TotEng   =     -3331.9978 KinEng   =       656.5966 Temp     =       304.2466 
PotEng   =     -3988.5943 E_bond   =         0.6355 E_angle  =         0.8720 
E_dihed  =         0.0000 E_impro  =         0.0000 E_vdwl   =       696.8042 
E_coul   =     25325.6462 E_long   =    -30012.5522 Press    =     -1018.7139 
Volume   =     10966.9346 
SHAKE stats (type/ave/delta) on step 195000
  2 0.956995 1.20479e-05
  2 104.52 0.000928023
---------------- Step   195000 ----- CPU =   3281.4586 (sec) ----------------
TotEng   =     -3268.1041 KinEng   =       665.2254 Temp     =       308.2449 
PotEng   =     -3933.3295 E_bond   =         1.5607 E_angle  =         0.6227 
E_dihed  =         0.0000 E_impro  =         0.0000 E_vdwl   =       760.9683 
E_coul   =     25316.1705 E_long   =    -30012.6516 Press    =       838.4448 
Volume   =     10786.8000 
SHAKE stats (type/ave/delta) on step 200000
  2 0.957007 4.91505e-06
  2 104.52 0.000449432
---------------- Step   200000 ----- CPU =   3373.0863 (sec) ----------------
TotEng   =     -3346.7904 KinEng   =       628.3489 Temp     =       291.1575 
PotEng   =     -3975.1393 E_bond   =         0.4604 E_angle  =         1.7215 
E_dihed  =         0.0000 E_impro  =         0.0000 E_vdwl   =       757.7689 
E_coul   =     25280.0109 E_long   =    -30015.1009 Press    =       410.2270 
Volume   =     10943.8753 
SHAKE stats (type/ave/delta) on step 205000
  2 0.957006 4.76717e-06
  2 104.52 0.000419922
---------------- Step   205000 ----- CPU =   3459.7969 (sec) ----------------
TotEng   =     -3237.2143 KinEng   =       665.5075 Temp     =       308.3757 
PotEng   =     -3902.7219 E_bond   =         0.5433 E_angle  =         3.0514 
E_dihed  =         0.0000 E_impro  =         0.0000 E_vdwl   =       707.7915 
E_coul   =     25399.8295 E_long   =    -30013.9377 Press    =      -722.5556 
Volume   =     11265.0005 
SHAKE stats (type/ave/delta) on step 210000
  2 0.956969 9.69643e-06
  2 104.52 0.00103239
---------------- Step   210000 ----- CPU =   3551.4964 (sec) ----------------
TotEng   =     -3311.9955 KinEng   =       666.3995 Temp     =       308.7890 
PotEng   =     -3978.3950 E_bond   =         0.7731 E_angle  =         1.3590 
E_dihed  =         0.0000 E_impro  =         0.0000 E_vdwl   =       765.7334 
E_coul   =     25265.9002 E_long   =    -30012.1607 Press    =       484.4567 
Volume   =     10785.7325 
SHAKE stats (type/ave/delta) on step 215000
  2 0.957041 9.30114e-06
  2 104.52 0.000581018
---------------- Step   215000 ----- CPU =   3645.0796 (sec) ----------------
TotEng   =     -3282.1176 KinEng   =       628.8372 Temp     =       291.3838 
PotEng   =     -3910.9548 E_bond   =         1.8799 E_angle  =         1.8391 
E_dihed  =         0.0000 E_impro  =         0.0000 E_vdwl   =       751.2385 
E_coul   =     25343.9844 E_long   =    -30009.8966 Press    =       826.9775 
Volume   =     10790.2270 
SHAKE stats (type/ave/delta) on step 220000
  2 0.957024 5.70502e-06
  2 104.52 0.000414563
---------------- Step   220000 ----- CPU =   3721.3057 (sec) ----------------
TotEng   =     -3302.3639 KinEng   =       630.5996 Temp     =       292.2004 
PotEng   =     -3932.9634 E_bond   =         1.9970 E_angle  =         0.7268 
E_dihed  =         0.0000 E_impro  =         0.0000 E_vdwl   =       798.7319 
E_coul   =     25275.8141 E_long   =    -30010.2333 Press    =      1291.3461 
Volume   =     10882.5074 
SHAKE stats (type/ave/delta) on step 225000
  2 0.957022 5.7996e-06
  2 104.52 0.000685512
---------------- Step   225000 ----- CPU =   3797.0268 (sec) ----------------
TotEng   =     -3296.0202 KinEng   =       665.8305 Temp     =       308.5253 
PotEng   =     -3961.8507 E_bond   =         1.5162 E_angle  =         0.7212 
E_dihed  =         0.0000 E_impro  =         0.0000 E_vdwl   =       738.7074 
E_coul   =     25306.5289 E_long   =    -30009.3244 Press    =        56.4677 
Volume   =     10772.0248 
SHAKE stats (type/ave/delta) on step 230000
  2 0.956959 5.07791e-06
  2 104.52 0.00041572
---------------- Step   230000 ----- CPU =   3878.8730 (sec) ----------------
TotEng   =     -3305.5701 KinEng   =       663.6905 Temp     =       307.5337 
PotEng   =     -3969.2606 E_bond   =         0.8319 E_angle  =         1.4936 
E_dihed  =         0.0000 E_impro  =         0.0000 E_vdwl   =       791.7393 
E_coul   =     25249.8181 E_long   =    -30013.1435 Press    =       761.7657 
Volume   =     11107.9099 
SHAKE stats (type/ave/delta) on step 235000
  2 0.95699 1.57453e-05
  2 104.52 0.00133058
---------------- Step   235000 ----- CPU =   3968.8510 (sec) ----------------
TotEng   =     -3283.4955 KinEng   =       655.0684 Temp     =       303.5385 
PotEng   =     -3938.5639 E_bond   =         0.8042 E_angle  =         1.1664 
E_dihed  =         0.0000 E_impro  =         0.0000 E_vdwl   =       723.8239 
E_coul   =     25347.5968 E_long   =    -30011.9552 Press    =      -548.7413 
Volume   =     11208.1612 
SHAKE stats (type/ave/delta) on step 240000
  2 0.956959 5.46243e-06
  2 104.52 0.000422135
---------------- Step   240000 ----- CPU =   4051.7461 (sec) ----------------
TotEng   =     -3260.8180 KinEng   =       644.4057 Temp     =       298.5977 
PotEng   =     -3905.2236 E_bond   =         0.4254 E_angle  =         1.6222 
E_dihed  =         0.0000 E_impro  =         0.0000 E_vdwl   =       736.3720 
E_coul   =     25368.0244 E_long   =    -30011.6676 Press    =       469.1862 
Volume   =     10774.4848 
SHAKE stats (type/ave/delta) on step 245000
  2 0.957039 9.55231e-06
  2 104.52 0.000743726
---------------- Step   245000 ----- CPU =   4135.5471 (sec) ----------------
TotEng   =     -3297.3036 KinEng   =       654.6451 Temp     =       303.3424 
PotEng   =     -3951.9486 E_bond   =         1.5104 E_angle  =         1.2330 
E_dihed  =         0.0000 E_impro  =         0.0000 E_vdwl   =       721.6666 
E_coul   =     25337.1460 E_long   =    -30013.5045 Press    =      -496.6665 
Volume   =     11123.9741 
SHAKE stats (type/ave/delta) on step 250000
  2 0.957032 5.62638e-06
  2 104.52 0.000445699
---------------- Step   250000 ----- CPU =   4228.0163 (sec) ----------------
TotEng   =     -3229.5146 KinEng   =       663.2791 Temp     =       307.3431 
PotEng   =     -3892.7937 E_bond   =         0.5846 E_angle  =         2.4593 
E_dihed  =         0.0000 E_impro  =         0.0000 E_vdwl   =       741.5806 
E_coul   =     25371.6374 E_long   =    -30009.0555 Press    =       485.0220 
Volume   =     10913.5408 
Loop time of 4228.02 on 8 procs for 250000 steps with 1085 atoms

Pair  time (%) = 1728.29 (40.8771)
Bond  time (%) = 0.509851 (0.0120589)
Kspce time (%) = 1603.72 (37.9309)
Neigh time (%) = 64.0036 (1.5138)
Comm  time (%) = 387.93 (9.17522)
Outpt time (%) = 0.0208941 (0.000494181)
Other time (%) = 443.54 (10.4905)

FFT time (% of Kspce) = 74.0684 (4.61853)
FFT Gflps 3d (1d only) = 1.85092 20.0227

Nlocal:    135.625 ave 146 max 120 min
Histogram: 1 0 0 1 0 1 2 1 1 1
Nghost:    4367.88 ave 4464 max 4281 min
Histogram: 1 0 1 1 3 0 0 0 1 1
Neighs:    51833.6 ave 58529 max 41496 min
Histogram: 1 0 1 1 0 0 0 3 0 2

Total # of neighbors = 414669
Ave neighs/atom = 382.183
Ave special neighs/atom = 2.00922
Neighbor list builds = 19796
Dangerous builds = 2310

reset_timestep 0

variable lambda equal ramp(1.0,0.0)

fix fADAPT all adapt 125000 pair lj/cut/tip4p/long/soft lambda 1*2 3*4 v_lambda after yes

variable dlambda equal -0.05

compute cFEP all fep ${temp} pair lj/cut/tip4p/long/soft lambda 1*2 3*4 v_dlambda
compute cFEP all fep 300 pair lj/cut/tip4p/long/soft lambda 1*2 3*4 v_dlambda

fix fFEP all ave/time 25 4000 125000 c_cFEP[1] c_cFEP[2] file fep10.lmp

# compute cRDF all rdf 100 3 3 3 4 4 4
# fix fRDF all ave/time 2000 500 ${nsteps} c_cRDF file rdf.lammps mode vector

group owater type 3
360 atoms in group owater
compute cMSD owater msd
fix fMSD owater ave/time 1 1 ${ndump} c_cMSD[1] c_cMSD[2] c_cMSD[3] c_cMSD[4] file msd.lammps
fix fMSD owater ave/time 1 1 25000 c_cMSD[1] c_cMSD[2] c_cMSD[3] c_cMSD[4] file msd.lammps

dump dCONF all custom ${ndump} dump.lammpstrj id mol type element x y z ix iy iz
dump dCONF all custom 25000 dump.lammpstrj id mol type element x y z ix iy iz
dump_modify dCONF element C H O H

run ${nsteps}
run 2500000
PPPM initialization ...
  G vector (1/distance) = 0.285822
  grid = 15 15 15
  stencil order = 5
  estimated absolute RMS force accuracy = 0.0144913
  estimated relative force accuracy = 4.36401e-05
  using double precision FFTs
  3d grid and FFT values/proc = 2744 512
FEP settings ...
  temperature = 300.000000
  tail no
  lj/cut/tip4p/long/soft lambda 1-2 3-4
SHAKE stats (type/ave/delta) on step 0
  2 0.957032 5.62638e-06
  2 104.52 0.000445699
Memory usage per processor = 7.76376 Mbytes
---------------- Step        0 ----- CPU =      0.0000 (sec) ----------------
TotEng   =     -3228.1271 KinEng   =       663.2791 Temp     =       307.3431 
PotEng   =     -3891.4062 E_bond   =         0.5846 E_angle  =         2.4593 
E_dihed  =         0.0000 E_impro  =         0.0000 E_vdwl   =       741.5806 
E_coul   =     27103.3516 E_long   =    -31739.3822 Press    =       478.8926 
Volume   =     10913.5408 
SHAKE stats (type/ave/delta) on step 5000
  2 0.956984 1.11858e-05
  2 104.52 0.000595701
---------------- Step     5000 ----- CPU =     88.8191 (sec) ----------------
TotEng   =     -3312.6653 KinEng   =       648.3494 Temp     =       300.4251 
PotEng   =     -3961.0147 E_bond   =         1.8402 E_angle  =         2.5395 
E_dihed  =         0.0000 E_impro  =         0.0000 E_vdwl   =       763.7552 
E_coul   =     27017.0756 E_long   =    -31746.2252 Press    =       427.7866 
Volume   =     10891.3688 
SHAKE stats (type/ave/delta) on step 10000
  2 0.95697 1.07651e-05
  2 104.52 0.000791622
---------------- Step    10000 ----- CPU =    171.3391 (sec) ----------------
TotEng   =     -3318.3093 KinEng   =       629.1370 Temp     =       291.5227 
PotEng   =     -3947.4463 E_bond   =         2.6147 E_angle  =         0.7524 
E_dihed  =         0.0000 E_impro  =         0.0000 E_vdwl   =       733.7768 
E_coul   =     27059.8611 E_long   =    -31744.4514 Press    =       123.3294 
Volume   =     10942.4761 
SHAKE stats (type/ave/delta) on step 15000
  2 0.956999 6.93946e-06
  2 104.52 0.000773589
---------------- Step    15000 ----- CPU =    258.6998 (sec) ----------------
TotEng   =     -3316.1177 KinEng   =       656.9406 Temp     =       304.4060 
PotEng   =     -3973.0584 E_bond   =         1.5980 E_angle  =         1.6031 
E_dihed  =         0.0000 E_impro  =         0.0000 E_vdwl   =       712.3083 
E_coul   =     27056.9716 E_long   =    -31745.5395 Press    =      -907.5922 
Volume   =     11081.7879 
SHAKE stats (type/ave/delta) on step 20000
  2 0.95701 5.84182e-06
  2 104.52 0.000662002
---------------- Step    20000 ----- CPU =    346.3299 (sec) ----------------
TotEng   =     -3358.5305 KinEng   =       652.8614 Temp     =       302.5159 
PotEng   =     -4011.3920 E_bond   =         0.3658 E_angle  =         1.9493 
E_dihed  =         0.0000 E_impro  =         0.0000 E_vdwl   =       766.1875 
E_coul   =     26962.8699 E_long   =    -31742.7644 Press    =       -48.0892 
Volume   =     11005.5978 
SHAKE stats (type/ave/delta) on step 25000
  2 0.957011 5.68419e-06
  2 104.52 0.00041376
---------------- Step    25000 ----- CPU =    434.5640 (sec) ----------------
TotEng   =     -3349.6608 KinEng   =       642.0065 Temp     =       297.4860 
PotEng   =     -3991.6673 E_bond   =         0.7646 E_angle  =         0.4750 
E_dihed  =         0.0000 E_impro  =         0.0000 E_vdwl   =       740.7302 
E_coul   =     27011.1487 E_long   =    -31744.7858 Press    =      -547.1290 
Volume   =     10969.9305 
SHAKE stats (type/ave/delta) on step 30000
  2 0.956962 5.70092e-06
  2 104.52 0.000518197
---------------- Step    30000 ----- CPU =    525.0995 (sec) ----------------
TotEng   =     -3331.0143 KinEng   =       655.8662 Temp     =       303.9082 
PotEng   =     -3986.8805 E_bond   =         0.1103 E_angle  =         0.4675 
E_dihed  =         0.0000 E_impro  =         0.0000 E_vdwl   =       779.5233 
E_coul   =     26973.4412 E_long   =    -31740.4228 Press    =       693.2667 
Volume   =     10842.7465 
SHAKE stats (type/ave/delta) on step 35000
  2 0.957003 5.00968e-06
  2 104.52 0.00038794
---------------- Step    35000 ----- CPU =    620.9314 (sec) ----------------
TotEng   =     -3334.7968 KinEng   =       605.0896 Temp     =       280.3799 
PotEng   =     -3939.8864 E_bond   =         1.2267 E_angle  =         1.6804 
E_dihed  =         0.0000 E_impro  =         0.0000 E_vdwl   =       776.4482 
E_coul   =     27025.9490 E_long   =    -31745.1907 Press    =       555.1216 
Volume   =     11084.6517 
SHAKE stats (type/ave/delta) on step 40000
  2 0.956994 5.18102e-06
  2 104.52 0.00036882
---------------- Step    40000 ----- CPU =    707.3938 (sec) ----------------
TotEng   =     -3290.4574 KinEng   =       685.7500 Temp     =       317.7554 
PotEng   =     -3976.2074 E_bond   =         0.9906 E_angle  =         3.0058 
E_dihed  =         0.0000 E_impro  =         0.0000 E_vdwl   =       814.8965 
E_coul   =     26947.1852 E_long   =    -31742.2855 Press    =      1347.8208 
Volume   =     10933.6677 
SHAKE stats (type/ave/delta) on step 45000
  2 0.957015 9.22838e-06
  2 104.52 0.000867752
---------------- Step    45000 ----- CPU =    799.4194 (sec) ----------------
TotEng   =     -3358.5805 KinEng   =       618.7829 Temp     =       286.7249 
PotEng   =     -3977.3634 E_bond   =         0.5901 E_angle  =         3.0605 
E_dihed  =         0.0000 E_impro  =         0.0000 E_vdwl   =       708.3558 
E_coul   =     27054.3830 E_long   =    -31743.7527 Press    =      -509.7709 
Volume   =     10708.9976 
SHAKE stats (type/ave/delta) on step 50000
  2 0.957012 7.17942e-06
  2 104.52 0.000488587
---------------- Step    50000 ----- CPU =    889.0907 (sec) ----------------
TotEng   =     -3314.3262 KinEng   =       615.9562 Temp     =       285.4151 
PotEng   =     -3930.2824 E_bond   =         1.6987 E_angle  =         1.8046 
E_dihed  =         0.0000 E_impro  =         0.0000 E_vdwl   =       738.9261 
E_coul   =     27068.6708 E_long   =    -31741.3826 Press    =        25.1094 
Volume   =     10784.1844 
SHAKE stats (type/ave/delta) on step 55000
  2 0.95704 5.6154e-06
  2 104.52 0.000685326
---------------- Step    55000 ----- CPU =    984.1639 (sec) ----------------
TotEng   =     -3342.8028 KinEng   =       651.8329 Temp     =       302.0393 
PotEng   =     -3994.6357 E_bond   =         0.6103 E_angle  =         0.7166 
E_dihed  =         0.0000 E_impro  =         0.0000 E_vdwl   =       743.7955 
E_coul   =     27004.5634 E_long   =    -31744.3215 Press    =      -431.1358 
Volume   =     11043.9611 
SHAKE stats (type/ave/delta) on step 60000
  2 0.957004 6.2967e-06
  2 104.52 0.000439663
---------------- Step    60000 ----- CPU =   1080.1235 (sec) ----------------
TotEng   =     -3299.2785 KinEng   =       597.5453 Temp     =       276.8841 
PotEng   =     -3896.8238 E_bond   =         0.8439 E_angle  =         1.4637 
E_dihed  =         0.0000 E_impro  =         0.0000 E_vdwl   =       713.5882 
E_coul   =     27124.9783 E_long   =    -31737.6979 Press    =      -365.0525 
Volume   =     10988.3283 
SHAKE stats (type/ave/delta) on step 65000
  2 0.957019 1.14756e-05
  2 104.52 0.00082655
---------------- Step    65000 ----- CPU =   1168.1656 (sec) ----------------
TotEng   =     -3277.5712 KinEng   =       671.8053 Temp     =       311.2938 
PotEng   =     -3949.3764 E_bond   =         0.8900 E_angle  =         0.9879 
E_dihed  =         0.0000 E_impro  =         0.0000 E_vdwl   =       699.3852 
E_coul   =     27088.8438 E_long   =    -31739.4833 Press    =      -958.8374 
Volume   =     11082.0706 
SHAKE stats (type/ave/delta) on step 70000
  2 0.956976 4.51886e-06
  2 104.52 0.000380809
---------------- Step    70000 ----- CPU =   1259.4070 (sec) ----------------
TotEng   =     -3293.6090 KinEng   =       650.1041 Temp     =       301.2382 
PotEng   =     -3943.7131 E_bond   =         0.9538 E_angle  =         1.4221 
E_dihed  =         0.0000 E_impro  =         0.0000 E_vdwl   =       745.9020 
E_coul   =     27050.3846 E_long   =    -31742.3755 Press    =        62.3775 
Volume   =     10800.0158 
SHAKE stats (type/ave/delta) on step 75000
  2 0.956966 8.23133e-06
  2 104.52 0.000694252
---------------- Step    75000 ----- CPU =   1351.9090 (sec) ----------------
TotEng   =     -3266.7670 KinEng   =       674.6768 Temp     =       312.6244 
PotEng   =     -3941.4437 E_bond   =         0.1379 E_angle  =         2.2370 
E_dihed  =         0.0000 E_impro  =         0.0000 E_vdwl   =       788.2983 
E_coul   =     27012.8471 E_long   =    -31744.9640 Press    =       946.4361 
Volume   =     10988.6596 
SHAKE stats (type/ave/delta) on step 80000
  2 0.95704 7.12118e-06
  2 104.52 0.000669462
---------------- Step    80000 ----- CPU =   1443.6494 (sec) ----------------
TotEng   =     -3315.3937 KinEng   =       661.6598 Temp     =       306.5927 
PotEng   =     -3977.0534 E_bond   =         0.6438 E_angle  =         2.5262 
E_dihed  =         0.0000 E_impro  =         0.0000 E_vdwl   =       766.8710 
E_coul   =     26997.3342 E_long   =    -31744.4286 Press    =       513.8799 
Volume   =     10874.2631 
SHAKE stats (type/ave/delta) on step 85000
  2 0.956986 7.26267e-06
  2 104.52 0.000499189
---------------- Step    85000 ----- CPU =   1531.3696 (sec) ----------------
TotEng   =     -3279.4933 KinEng   =       655.5415 Temp     =       303.7577 
PotEng   =     -3935.0348 E_bond   =         0.4556 E_angle  =         0.5744 
E_dihed  =         0.0000 E_impro  =         0.0000 E_vdwl   =       724.0141 
E_coul   =     27081.5098 E_long   =    -31741.5887 Press    =       -88.8633 
Volume   =     10911.0014 
SHAKE stats (type/ave/delta) on step 90000
  2 0.956985 5.76136e-06
  2 104.52 0.000423521
---------------- Step    90000 ----- CPU =   1615.9094 (sec) ----------------
TotEng   =     -3324.2437 KinEng   =       624.1738 Temp     =       289.2229 
PotEng   =     -3948.4174 E_bond   =         0.4006 E_angle  =         1.6003 
E_dihed  =         0.0000 E_impro  =         0.0000 E_vdwl   =       751.6210 
E_coul   =     27039.3055 E_long   =    -31741.3448 Press    =      -145.4738 
Volume   =     11129.3080 
SHAKE stats (type/ave/delta) on step 95000
  2 0.957013 6.33911e-06
  2 104.52 0.000486959
---------------- Step    95000 ----- CPU =   1708.2909 (sec) ----------------
TotEng   =     -3292.4953 KinEng   =       625.5687 Temp     =       289.8692 
PotEng   =     -3918.0639 E_bond   =         0.1004 E_angle  =         1.2949 
E_dihed  =         0.0000 E_impro  =         0.0000 E_vdwl   =       813.7002 
E_coul   =     27010.1704 E_long   =    -31743.3299 Press    =      1452.7450 
Volume   =     11059.7369 
SHAKE stats (type/ave/delta) on step 100000
  2 0.957021 4.88059e-06
  2 104.52 0.000411399
---------------- Step   100000 ----- CPU =   1792.9490 (sec) ----------------
TotEng   =     -3277.0615 KinEng   =       638.3735 Temp     =       295.8026 
PotEng   =     -3915.4349 E_bond   =         0.8576 E_angle  =         0.6163 
E_dihed  =         0.0000 E_impro  =         0.0000 E_vdwl   =       769.4182 
E_coul   =     27054.0555 E_long   =    -31740.3826 Press    =       797.6435 
Volume   =     11025.3793 
SHAKE stats (type/ave/delta) on step 105000
  2 0.956974 1.43473e-05
  2 104.52 0.000749917
---------------- Step   105000 ----- CPU =   1874.3384 (sec) ----------------
TotEng   =     -3277.5129 KinEng   =       667.3482 Temp     =       309.2286 
PotEng   =     -3944.8611 E_bond   =         0.5441 E_angle  =         1.3980 
E_dihed  =         0.0000 E_impro  =         0.0000 E_vdwl   =       803.1869 
E_coul   =     26989.0517 E_long   =    -31739.0417 Press    =      1237.1538 
Volume   =     10991.0140 
SHAKE stats (type/ave/delta) on step 110000
  2 0.957038 6.90463e-06
  2 104.52 0.000743351
---------------- Step   110000 ----- CPU =   1953.0991 (sec) ----------------
TotEng   =     -3279.9205 KinEng   =       687.2418 Temp     =       318.4467 
PotEng   =     -3967.1623 E_bond   =         1.0816 E_angle  =         1.4075 
E_dihed  =         0.0000 E_impro  =         0.0000 E_vdwl   =       731.1460 
E_coul   =     27044.7212 E_long   =    -31745.5186 Press    =       414.8341 
Volume   =     10685.8593 
SHAKE stats (type/ave/delta) on step 115000
  2 0.956988 1.08268e-05
  2 104.52 0.00106022
---------------- Step   115000 ----- CPU =   2046.6773 (sec) ----------------
TotEng   =     -3345.4218 KinEng   =       624.8027 Temp     =       289.5143 
PotEng   =     -3970.2245 E_bond   =         1.0028 E_angle  =         2.2082 
E_dihed  =         0.0000 E_impro  =         0.0000 E_vdwl   =       791.8096 
E_coul   =     26970.2761 E_long   =    -31735.5212 Press    =       297.5716 
Volume   =     10994.5888 
SHAKE stats (type/ave/delta) on step 120000
  2 0.956987 9.69448e-06
  2 104.52 0.00072146
---------------- Step   120000 ----- CPU =   2139.5196 (sec) ----------------
TotEng   =     -3249.7769 KinEng   =       632.8427 Temp     =       293.2398 
PotEng   =     -3882.6196 E_bond   =         0.2778 E_angle  =         0.5913 
E_dihed  =         0.0000 E_impro  =         0.0000 E_vdwl   =       747.7320 
E_coul   =     27105.9776 E_long   =    -31737.1982 Press    =       612.9210 
Volume   =     10979.9889 
SHAKE stats (type/ave/delta) on step 125000
  2 0.957012 5.3254e-06
  2 104.52 0.000446991
---------------- Step   125000 ----- CPU =   2228.0536 (sec) ----------------
TotEng   =     -3310.0992 KinEng   =       638.8264 Temp     =       296.0125 
PotEng   =     -3948.9256 E_bond   =         1.0479 E_angle  =         2.8465 
E_dihed  =         0.0000 E_impro  =         0.0000 E_vdwl   =       726.2001 
E_coul   =     27059.0794 E_long   =    -31738.0994 Press    =      -657.3112 
Volume   =     11282.7021 
SHAKE stats (type/ave/delta) on step 130000
  2 0.957062 4.24514e-06
  2 104.52 0.000403645
---------------- Step   130000 ----- CPU =   2315.8900 (sec) ----------------
TotEng   =     -3271.3685 KinEng   =       651.1770 Temp     =       301.7354 
PotEng   =     -3922.5455 E_bond   =         0.6812 E_angle  =         0.6196 
E_dihed  =         0.0000 E_impro  =         0.0000 E_vdwl   =       799.6601 
E_coul   =     27020.5610 E_long   =    -31744.0674 Press    =      1290.5833 
Volume   =     11064.1995 
SHAKE stats (type/ave/delta) on step 135000
  2 0.957019 7.20444e-06
  2 104.52 0.000779842
---------------- Step   135000 ----- CPU =   2402.2307 (sec) ----------------
TotEng   =     -3366.7694 KinEng   =       610.5729 Temp     =       282.9207 
PotEng   =     -3977.3423 E_bond   =         0.6674 E_angle  =         1.9106 
E_dihed  =         0.0000 E_impro  =         0.0000 E_vdwl   =       748.9387 
E_coul   =     27009.1215 E_long   =    -31737.9805 Press    =      -486.1866 
Volume   =     11110.4732 
SHAKE stats (type/ave/delta) on step 140000
  2 0.957018 9.59964e-06
  2 104.52 0.000647438
---------------- Step   140000 ----- CPU =   2487.2609 (sec) ----------------
TotEng   =     -3302.2618 KinEng   =       661.4137 Temp     =       306.4787 
PotEng   =     -3963.6755 E_bond   =         0.5132 E_angle  =         2.7081 
E_dihed  =         0.0000 E_impro  =         0.0000 E_vdwl   =       754.8814 
E_coul   =     27021.7820 E_long   =    -31743.5602 Press    =       410.8204 
Volume   =     11029.6762 
SHAKE stats (type/ave/delta) on step 145000
  2 0.956983 8.02439e-06
  2 104.52 0.000978201
---------------- Step   145000 ----- CPU =   2575.1484 (sec) ----------------
TotEng   =     -3276.2238 KinEng   =       638.6773 Temp     =       295.9434 
PotEng   =     -3914.9012 E_bond   =         0.5922 E_angle  =         3.4570 
E_dihed  =         0.0000 E_impro  =         0.0000 E_vdwl   =       743.4522 
E_coul   =     27079.2814 E_long   =    -31741.6841 Press    =       158.4596 
Volume   =     11132.4905 
SHAKE stats (type/ave/delta) on step 150000
  2 0.957018 2.37114e-05
  2 104.52 0.000809707
---------------- Step   150000 ----- CPU =   2662.2390 (sec) ----------------
TotEng   =     -3212.1783 KinEng   =       689.7821 Temp     =       319.6237 
PotEng   =     -3901.9604 E_bond   =         0.7260 E_angle  =         1.0698 
E_dihed  =         0.0000 E_impro  =         0.0000 E_vdwl   =       690.3814 
E_coul   =     27151.2220 E_long   =    -31745.3597 Press    =        45.9553 
Volume   =     10803.0801 
SHAKE stats (type/ave/delta) on step 155000
  2 0.957019 1.38249e-05
  2 104.52 0.00113998
---------------- Step   155000 ----- CPU =   2751.8625 (sec) ----------------
TotEng   =     -3379.6832 KinEng   =       624.8247 Temp     =       289.5245 
PotEng   =     -4004.5079 E_bond   =         0.3897 E_angle  =         1.5576 
E_dihed  =         0.0000 E_impro  =         0.0000 E_vdwl   =       736.1946 
E_coul   =     26998.9467 E_long   =    -31741.5966 Press    =      -322.3433 
Volume   =     10830.7608 
SHAKE stats (type/ave/delta) on step 160000
  2 0.957016 7.87922e-06
  2 104.52 0.00055443
---------------- Step   160000 ----- CPU =   2844.7652 (sec) ----------------
TotEng   =     -3348.7390 KinEng   =       642.5372 Temp     =       297.7319 
PotEng   =     -3991.2762 E_bond   =         0.7269 E_angle  =         1.1914 
E_dihed  =         0.0000 E_impro  =         0.0000 E_vdwl   =       779.3944 
E_coul   =     26970.9801 E_long   =    -31743.5690 Press    =       513.6580 
Volume   =     10959.2332 
SHAKE stats (type/ave/delta) on step 165000
  2 0.956994 1.14982e-05
  2 104.52 0.00105626
---------------- Step   165000 ----- CPU =   2933.5987 (sec) ----------------
TotEng   =     -3233.4173 KinEng   =       681.7794 Temp     =       315.9155 
PotEng   =     -3915.1967 E_bond   =         0.2352 E_angle  =         0.5174 
E_dihed  =         0.0000 E_impro  =         0.0000 E_vdwl   =       708.3846 
E_coul   =     27118.6892 E_long   =    -31743.0230 Press    =       176.8220 
Volume   =     10754.3631 
SHAKE stats (type/ave/delta) on step 170000
  2 0.956971 6.62366e-06
  2 104.52 0.00052988
---------------- Step   170000 ----- CPU =   3026.6992 (sec) ----------------
TotEng   =     -3389.5345 KinEng   =       631.0453 Temp     =       292.4069 
PotEng   =     -4020.5798 E_bond   =         0.8585 E_angle  =         1.5200 
E_dihed  =         0.0000 E_impro  =         0.0000 E_vdwl   =       771.5601 
E_coul   =     26951.8951 E_long   =    -31746.4135 Press    =        81.5360 
Volume   =     10849.6021 
SHAKE stats (type/ave/delta) on step 175000
  2 0.956961 6.99392e-06
  2 104.52 0.000479449
---------------- Step   175000 ----- CPU =   3116.6226 (sec) ----------------
TotEng   =     -3333.5858 KinEng   =       643.1985 Temp     =       298.0384 
PotEng   =     -3976.7843 E_bond   =         0.3191 E_angle  =         1.1234 
E_dihed  =         0.0000 E_impro  =         0.0000 E_vdwl   =       798.0126 
E_coul   =     26963.8099 E_long   =    -31740.0493 Press    =      1035.1773 
Volume   =     10886.9431 
SHAKE stats (type/ave/delta) on step 180000
  2 0.95702 7.77798e-06
  2 104.52 0.000626221
---------------- Step   180000 ----- CPU =   3206.0794 (sec) ----------------
TotEng   =     -3306.7992 KinEng   =       662.9522 Temp     =       307.1916 
PotEng   =     -3969.7513 E_bond   =         0.6950 E_angle  =         0.7462 
E_dihed  =         0.0000 E_impro  =         0.0000 E_vdwl   =       743.2815 
E_coul   =     27026.9078 E_long   =    -31741.3818 Press    =      -292.5320 
Volume   =     11053.4775 
SHAKE stats (type/ave/delta) on step 185000
  2 0.956988 5.01135e-06
  2 104.52 0.00050591
---------------- Step   185000 ----- CPU =   3297.9339 (sec) ----------------
TotEng   =     -3288.6972 KinEng   =       617.0794 Temp     =       285.9355 
PotEng   =     -3905.7765 E_bond   =         1.1918 E_angle  =         1.2726 
E_dihed  =         0.0000 E_impro  =         0.0000 E_vdwl   =       664.6786 
E_coul   =     27169.8134 E_long   =    -31742.7329 Press    =     -1672.7490 
Volume   =     11199.2495 
SHAKE stats (type/ave/delta) on step 190000
  2 0.95701 5.07492e-06
  2 104.52 0.000411548
---------------- Step   190000 ----- CPU =   3383.0922 (sec) ----------------
TotEng   =     -3269.4997 KinEng   =       642.6138 Temp     =       297.7674 
PotEng   =     -3912.1136 E_bond   =         1.5744 E_angle  =         1.5207 
E_dihed  =         0.0000 E_impro  =         0.0000 E_vdwl   =       704.0662 
E_coul   =     27124.9568 E_long   =    -31744.2317 Press    =      -937.6783 
Volume   =     11225.6821 
SHAKE stats (type/ave/delta) on step 195000
  2 0.956962 4.56608e-06
  2 104.52 0.000423892
---------------- Step   195000 ----- CPU =   3476.8494 (sec) ----------------
TotEng   =     -3337.4919 KinEng   =       643.5617 Temp     =       298.2066 
PotEng   =     -3981.0535 E_bond   =         1.2863 E_angle  =         2.2676 
E_dihed  =         0.0000 E_impro  =         0.0000 E_vdwl   =       762.7756 
E_coul   =     26994.1078 E_long   =    -31741.4908 Press    =       381.5438 
Volume   =     10901.6782 
SHAKE stats (type/ave/delta) on step 200000
  2 0.957031 6.15749e-06
  2 104.52 0.000409952
---------------- Step   200000 ----- CPU =   3570.4325 (sec) ----------------
TotEng   =     -3332.4135 KinEng   =       674.9130 Temp     =       312.7339 
PotEng   =     -4007.3265 E_bond   =         0.3863 E_angle  =         1.5403 
E_dihed  =         0.0000 E_impro  =         0.0000 E_vdwl   =       808.8108 
E_coul   =     26923.9254 E_long   =    -31741.9892 Press    =       777.4693 
Volume   =     11063.7703 
SHAKE stats (type/ave/delta) on step 205000
  2 0.957035 6.19861e-06
  2 104.52 0.000463133
---------------- Step   205000 ----- CPU =   3656.5185 (sec) ----------------
TotEng   =     -3362.1728 KinEng   =       631.5191 Temp     =       292.6265 
PotEng   =     -3993.6918 E_bond   =         2.1320 E_angle  =         2.6370 
E_dihed  =         0.0000 E_impro  =         0.0000 E_vdwl   =       778.4422 
E_coul   =     26964.9389 E_long   =    -31741.8419 Press    =      -268.7008 
Volume   =     11126.0945 
SHAKE stats (type/ave/delta) on step 210000
  2 0.956909 9.5945e-06
  2 104.52 0.000596658
---------------- Step   210000 ----- CPU =   3742.7579 (sec) ----------------
TotEng   =     -3340.2243 KinEng   =       613.4128 Temp     =       284.2366 
PotEng   =     -3953.6371 E_bond   =         2.0383 E_angle  =         1.6851 
E_dihed  =         0.0000 E_impro  =         0.0000 E_vdwl   =       716.4103 
E_coul   =     27067.4400 E_long   =    -31741.2108 Press    =      -717.8552 
Volume   =     10941.3053 
SHAKE stats (type/ave/delta) on step 215000
  2 0.956998 9.3414e-06
  2 104.52 0.000559817
---------------- Step   215000 ----- CPU =   3828.2595 (sec) ----------------
TotEng   =     -3283.0982 KinEng   =       628.7379 Temp     =       291.3378 
PotEng   =     -3911.8362 E_bond   =         0.5114 E_angle  =         1.7648 
E_dihed  =         0.0000 E_impro  =         0.0000 E_vdwl   =       762.5553 
E_coul   =     27064.0505 E_long   =    -31740.7182 Press    =       630.6654 
Volume   =     11069.5251 
SHAKE stats (type/ave/delta) on step 220000
  2 0.956962 5.19847e-06
  2 104.52 0.00035432
---------------- Step   220000 ----- CPU =   3922.4188 (sec) ----------------
TotEng   =     -3302.6649 KinEng   =       632.0664 Temp     =       292.8801 
PotEng   =     -3934.7313 E_bond   =         1.4849 E_angle  =         1.0817 
E_dihed  =         0.0000 E_impro  =         0.0000 E_vdwl   =       740.8479 
E_coul   =     27058.2077 E_long   =    -31736.3535 Press    =       283.7515 
Volume   =     10812.7492 
SHAKE stats (type/ave/delta) on step 225000
  2 0.956961 4.70679e-06
  2 104.52 0.000401589
---------------- Step   225000 ----- CPU =   4012.7885 (sec) ----------------
TotEng   =     -3299.3584 KinEng   =       635.2245 Temp     =       294.3435 
PotEng   =     -3934.5829 E_bond   =         1.4090 E_angle  =         1.4372 
E_dihed  =         0.0000 E_impro  =         0.0000 E_vdwl   =       788.1297 
E_coul   =     27016.2107 E_long   =    -31741.7696 Press    =      1309.8624 
Volume   =     10898.5190 
SHAKE stats (type/ave/delta) on step 230000
  2 0.956953 4.89428e-06
  2 104.52 0.000370318
---------------- Step   230000 ----- CPU =   4100.2596 (sec) ----------------
TotEng   =     -3343.1543 KinEng   =       679.6557 Temp     =       314.9315 
PotEng   =     -4022.8100 E_bond   =         1.2190 E_angle  =         2.1233 
E_dihed  =         0.0000 E_impro  =         0.0000 E_vdwl   =       793.3808 
E_coul   =     26922.4489 E_long   =    -31741.9821 Press    =       543.1331 
Volume   =     10757.9354 
SHAKE stats (type/ave/delta) on step 235000
  2 0.956954 4.81068e-06
  2 104.52 0.000434919
---------------- Step   235000 ----- CPU =   4195.0104 (sec) ----------------
TotEng   =     -3250.9075 KinEng   =       667.1092 Temp     =       309.1178 
PotEng   =     -3918.0166 E_bond   =         0.7175 E_angle  =         4.6872 
E_dihed  =         0.0000 E_impro  =         0.0000 E_vdwl   =       754.8800 
E_coul   =     27062.0911 E_long   =    -31740.3925 Press    =       359.6586 
Volume   =     11093.6233 
SHAKE stats (type/ave/delta) on step 240000
  2 0.957004 5.1122e-06
  2 104.52 0.000490629
---------------- Step   240000 ----- CPU =   4288.2114 (sec) ----------------
TotEng   =     -3250.7782 KinEng   =       654.2666 Temp     =       303.1669 
PotEng   =     -3905.0448 E_bond   =         1.1985 E_angle  =         2.2435 
E_dihed  =         0.0000 E_impro  =         0.0000 E_vdwl   =       743.5163 
E_coul   =     27088.0202 E_long   =    -31740.0232 Press    =       461.0466 
Volume   =     10842.0305 
SHAKE stats (type/ave/delta) on step 245000
  2 0.95698 4.43644e-06
  2 104.52 0.000542051
---------------- Step   245000 ----- CPU =   4377.5603 (sec) ----------------
TotEng   =     -3266.6628 KinEng   =       624.7154 Temp     =       289.4739 
PotEng   =     -3891.3782 E_bond   =         0.9694 E_angle  =         0.7376 
E_dihed  =         0.0000 E_impro  =         0.0000 E_vdwl   =       670.3793 
E_coul   =     27176.4637 E_long   =    -31739.9281 Press    =     -1189.7125 
Volume   =     11133.9469 
SHAKE stats (type/ave/delta) on step 250000
  2 0.957033 4.78734e-06
  2 104.52 0.00044887
---------------- Step   250000 ----- CPU =   4471.4489 (sec) ----------------
TotEng   =     -3250.7118 KinEng   =       674.2117 Temp     =       312.4089 
PotEng   =     -3924.9235 E_bond   =         0.4923 E_angle  =         0.6286 
E_dihed  =         0.0000 E_impro  =         0.0000 E_vdwl   =       741.3645 
E_coul   =     27073.6113 E_long   =    -31741.0202 Press    =       -29.6529 
Volume   =     11140.2031 
SHAKE stats (type/ave/delta) on step 255000
  2 0.957023 7.6695e-06
  2 104.52 0.000506536
---------------- Step   255000 ----- CPU =   4560.6601 (sec) ----------------
TotEng   =     -3332.8777 KinEng   =       631.0216 Temp     =       292.3959 
PotEng   =     -3963.8993 E_bond   =         0.2526 E_angle  =         1.0903 
E_dihed  =         0.0000 E_impro  =         0.0000 E_vdwl   =       661.3527 
E_coul   =     27116.3181 E_long   =    -31742.9129 Press    =     -2060.5105 
Volume   =     11252.5455 
SHAKE stats (type/ave/delta) on step 260000
  2 0.956959 9.09302e-06
  2 104.52 0.00077591
---------------- Step   260000 ----- CPU =   4646.2100 (sec) ----------------
TotEng   =     -3319.1293 KinEng   =       677.1993 Temp     =       313.7933 
PotEng   =     -3996.3286 E_bond   =         0.2665 E_angle  =         4.3234 
E_dihed  =         0.0000 E_impro  =         0.0000 E_vdwl   =       752.5530 
E_coul   =     26988.9589 E_long   =    -31742.4304 Press    =      -144.1325 
Volume   =     10948.1118 
SHAKE stats (type/ave/delta) on step 265000
  2 0.957017 9.50746e-06
  2 104.52 0.000595676
---------------- Step   265000 ----- CPU =   4730.1343 (sec) ----------------
TotEng   =     -3287.9272 KinEng   =       644.5930 Temp     =       298.6845 
PotEng   =     -3932.5202 E_bond   =         0.3131 E_angle  =         1.5565 
E_dihed  =         0.0000 E_impro  =         0.0000 E_vdwl   =       762.3617 
E_coul   =     27047.2192 E_long   =    -31743.9706 Press    =       975.2525 
Volume   =     10885.0505 
SHAKE stats (type/ave/delta) on step 270000
  2 0.957024 1.03449e-05
  2 104.52 0.000923821
---------------- Step   270000 ----- CPU =   4814.2306 (sec) ----------------
TotEng   =     -3195.8830 KinEng   =       691.8963 Temp     =       320.6034 
PotEng   =     -3887.7794 E_bond   =         0.5629 E_angle  =         0.7681 
E_dihed  =         0.0000 E_impro  =         0.0000 E_vdwl   =       670.2526 
E_coul   =     27181.2718 E_long   =    -31740.6347 Press    =      -771.2424 
Volume   =     11138.2129 
SHAKE stats (type/ave/delta) on step 275000
  2 0.956989 7.45676e-06
  2 104.52 0.000589959
---------------- Step   275000 ----- CPU =   4904.4000 (sec) ----------------
TotEng   =     -3314.8954 KinEng   =       645.4998 Temp     =       299.1047 
PotEng   =     -3960.3952 E_bond   =         0.5434 E_angle  =         2.7858 
E_dihed  =         0.0000 E_impro  =         0.0000 E_vdwl   =       707.4878 
E_coul   =     27069.7665 E_long   =    -31740.9787 Press    =     -1122.2267 
Volume   =     11155.1949 
SHAKE stats (type/ave/delta) on step 280000
  2 0.957049 5.50006e-06
  2 104.52 0.000422565
---------------- Step   280000 ----- CPU =   4996.0003 (sec) ----------------
TotEng   =     -3341.2629 KinEng   =       622.7286 Temp     =       288.5532 
PotEng   =     -3963.9915 E_bond   =         1.8127 E_angle  =         0.9167 
E_dihed  =         0.0000 E_impro  =         0.0000 E_vdwl   =       755.5741 
E_coul   =     27024.2716 E_long   =    -31746.5666 Press    =       -34.5002 
Volume   =     11120.2244 
SHAKE stats (type/ave/delta) on step 285000
  2 0.956966 6.07174e-06
  2 104.52 0.000510026
---------------- Step   285000 ----- CPU =   5085.0832 (sec) ----------------
TotEng   =     -3334.4875 KinEng   =       636.6288 Temp     =       294.9942 
PotEng   =     -3971.1163 E_bond   =         0.8859 E_angle  =         1.0919 
E_dihed  =         0.0000 E_impro  =         0.0000 E_vdwl   =       735.8357 
E_coul   =     27030.8730 E_long   =    -31739.8027 Press    =      -430.6265 
Volume   =     11054.9179 
SHAKE stats (type/ave/delta) on step 290000
  2 0.956989 6.21594e-06
  2 104.52 0.000482068
---------------- Step   290000 ----- CPU =   5177.3643 (sec) ----------------
TotEng   =     -3283.0525 KinEng   =       662.7442 Temp     =       307.0952 
PotEng   =     -3945.7967 E_bond   =         1.1128 E_angle  =         4.9887 
E_dihed  =         0.0000 E_impro  =         0.0000 E_vdwl   =       713.6371 
E_coul   =     27078.5400 E_long   =    -31744.0754 Press    =      -141.3626 
Volume   =     10687.0495 
SHAKE stats (type/ave/delta) on step 295000
  2 0.95697 5.75346e-06
  2 104.52 0.000386445
---------------- Step   295000 ----- CPU =   5261.9114 (sec) ----------------
TotEng   =     -3316.6594 KinEng   =       601.0535 Temp     =       278.5097 
PotEng   =     -3917.7129 E_bond   =         1.9499 E_angle  =         1.8175 
E_dihed  =         0.0000 E_impro  =         0.0000 E_vdwl   =       699.8143 
E_coul   =     27120.5722 E_long   =    -31741.8667 Press    =      -734.7079 
Volume   =     10890.9399 
SHAKE stats (type/ave/delta) on step 300000
  2 0.956979 4.60254e-06
  2 104.52 0.000394932
---------------- Step   300000 ----- CPU =   5354.2874 (sec) ----------------
TotEng   =     -3357.8363 KinEng   =       638.1870 Temp     =       295.7162 
PotEng   =     -3996.0233 E_bond   =         3.0938 E_angle  =         0.4342 
E_dihed  =         0.0000 E_impro  =         0.0000 E_vdwl   =       759.1110 
E_coul   =     26982.6187 E_long   =    -31741.2811 Press    =       126.2730 
Volume   =     10886.3326 
SHAKE stats (type/ave/delta) on step 305000
  2 0.956989 6.89656e-06
  2 104.52 0.000587797
---------------- Step   305000 ----- CPU =   5439.3194 (sec) ----------------
TotEng   =     -3260.5573 KinEng   =       686.0760 Temp     =       317.9064 
PotEng   =     -3946.6333 E_bond   =         0.5658 E_angle  =         0.7600 
E_dihed  =         0.0000 E_impro  =         0.0000 E_vdwl   =       687.3443 
E_coul   =     27108.6125 E_long   =    -31743.9159 Press    =      -965.6457 
Volume   =     10953.1045 
SHAKE stats (type/ave/delta) on step 310000
  2 0.956965 7.04319e-06
  2 104.52 0.000647098
---------------- Step   310000 ----- CPU =   5516.3395 (sec) ----------------
TotEng   =     -3277.6779 KinEng   =       672.0039 Temp     =       311.3859 
PotEng   =     -3949.6818 E_bond   =         1.8328 E_angle  =         1.3175 
E_dihed  =         0.0000 E_impro  =         0.0000 E_vdwl   =       747.4548 
E_coul   =     27043.0666 E_long   =    -31743.3534 Press    =      -164.0043 
Volume   =     11220.1806 
SHAKE stats (type/ave/delta) on step 315000
  2 0.957006 4.55944e-06
  2 104.52 0.000406269
---------------- Step   315000 ----- CPU =   5600.9654 (sec) ----------------
TotEng   =     -3378.8861 KinEng   =       618.1477 Temp     =       286.4306 
PotEng   =     -3997.0338 E_bond   =         1.6513 E_angle  =         2.3258 
E_dihed  =         0.0000 E_impro  =         0.0000 E_vdwl   =       775.5517 
E_coul   =     26965.6260 E_long   =    -31742.1885 Press    =       219.4347 
Volume   =     10961.9238 
SHAKE stats (type/ave/delta) on step 320000
  2 0.957039 5.33318e-06
  2 104.52 0.000411072
---------------- Step   320000 ----- CPU =   5693.3435 (sec) ----------------
TotEng   =     -3236.4832 KinEng   =       668.4139 Temp     =       309.7224 
PotEng   =     -3904.8971 E_bond   =         1.1088 E_angle  =         0.9295 
E_dihed  =         0.0000 E_impro  =         0.0000 E_vdwl   =       744.3232 
E_coul   =     27088.3135 E_long   =    -31739.5722 Press    =       143.1303 
Volume   =     11097.8989 
SHAKE stats (type/ave/delta) on step 325000
  2 0.956973 4.53777e-06
  2 104.52 0.000437399
---------------- Step   325000 ----- CPU =   5786.3289 (sec) ----------------
TotEng   =     -3302.4604 KinEng   =       623.5189 Temp     =       288.9194 
PotEng   =     -3925.9792 E_bond   =         2.0803 E_angle  =         2.1140 
E_dihed  =         0.0000 E_impro  =         0.0000 E_vdwl   =       737.4859 
E_coul   =     27074.1457 E_long   =    -31741.8051 Press    =      -107.9411 
Volume   =     10983.6858 
SHAKE stats (type/ave/delta) on step 330000
  2 0.957062 1.24016e-05
  2 104.52 0.000912645
---------------- Step   330000 ----- CPU =   5878.2336 (sec) ----------------
TotEng   =     -3344.7470 KinEng   =       646.6651 Temp     =       299.6447 
PotEng   =     -3991.4121 E_bond   =         1.3107 E_angle  =         1.1581 
E_dihed  =         0.0000 E_impro  =         0.0000 E_vdwl   =       744.6731 
E_coul   =     27008.1962 E_long   =    -31746.7502 Press    =      -480.9246 
Volume   =     11036.6525 
SHAKE stats (type/ave/delta) on step 335000
  2 0.956997 8.1814e-06
  2 104.52 0.000705941
---------------- Step   335000 ----- CPU =   5967.3395 (sec) ----------------
TotEng   =     -3239.9406 KinEng   =       648.4306 Temp     =       300.4627 
PotEng   =     -3888.3711 E_bond   =         1.6111 E_angle  =         1.5881 
E_dihed  =         0.0000 E_impro  =         0.0000 E_vdwl   =       737.0579 
E_coul   =     27110.8811 E_long   =    -31739.5093 Press    =       204.9338 
Volume   =     11101.4767 
SHAKE stats (type/ave/delta) on step 340000
  2 0.956975 1.66159e-05
  2 104.52 0.00168278
---------------- Step   340000 ----- CPU =   6059.4236 (sec) ----------------
TotEng   =     -3335.3533 KinEng   =       606.3021 Temp     =       280.9417 
PotEng   =     -3941.6554 E_bond   =         3.8230 E_angle  =         0.7313 
E_dihed  =         0.0000 E_impro  =         0.0000 E_vdwl   =       740.0347 
E_coul   =     27058.9618 E_long   =    -31745.2061 Press    =      -620.6294 
Volume   =     11130.0961 
SHAKE stats (type/ave/delta) on step 345000
  2 0.957025 4.10676e-06
  2 104.52 0.000414391
---------------- Step   345000 ----- CPU =   6144.9768 (sec) ----------------
TotEng   =     -3286.0065 KinEng   =       651.4717 Temp     =       301.8719 
PotEng   =     -3937.4782 E_bond   =         2.4308 E_angle  =         3.0233 
E_dihed  =         0.0000 E_impro  =         0.0000 E_vdwl   =       682.1671 
E_coul   =     27121.0093 E_long   =    -31746.1087 Press    =      -690.3719 
Volume   =     10771.0600 
SHAKE stats (type/ave/delta) on step 350000
  2 0.957009 2.12874e-05
  2 104.52 0.0014901
---------------- Step   350000 ----- CPU =   6231.2499 (sec) ----------------
TotEng   =     -3316.5511 KinEng   =       624.4457 Temp     =       289.3489 
PotEng   =     -3940.9968 E_bond   =         0.5166 E_angle  =         1.0641 
E_dihed  =         0.0000 E_impro  =         0.0000 E_vdwl   =       754.7088 
E_coul   =     27040.9636 E_long   =    -31738.2499 Press    =       331.0244 
Volume   =     11022.1124 
SHAKE stats (type/ave/delta) on step 355000
  2 0.956999 5.97488e-06
  2 104.52 0.000499441
---------------- Step   355000 ----- CPU =   6318.8324 (sec) ----------------
TotEng   =     -3323.1363 KinEng   =       643.9049 Temp     =       298.3657 
PotEng   =     -3967.0412 E_bond   =         2.8867 E_angle  =         2.8351 
E_dihed  =         0.0000 E_impro  =         0.0000 E_vdwl   =       696.2836 
E_coul   =     27073.0733 E_long   =    -31742.1199 Press    =      -987.4843 
Volume   =     10960.9291 
SHAKE stats (type/ave/delta) on step 360000
  2 0.956978 9.92149e-06
  2 104.52 0.000770643
---------------- Step   360000 ----- CPU =   6403.1678 (sec) ----------------
TotEng   =     -3299.7071 KinEng   =       665.8416 Temp     =       308.5305 
PotEng   =     -3965.5487 E_bond   =         0.5716 E_angle  =         2.2172 
E_dihed  =         0.0000 E_impro  =         0.0000 E_vdwl   =       756.1643 
E_coul   =     27020.1433 E_long   =    -31744.6451 Press    =       -99.0535 
Volume   =     11042.0103 
SHAKE stats (type/ave/delta) on step 365000
  2 0.957056 6.49226e-06
  2 104.52 0.000592234
---------------- Step   365000 ----- CPU =   6490.4994 (sec) ----------------
TotEng   =     -3277.4402 KinEng   =       663.1996 Temp     =       307.3062 
PotEng   =     -3940.6398 E_bond   =         0.7937 E_angle  =         2.4282 
E_dihed  =         0.0000 E_impro  =         0.0000 E_vdwl   =       748.8478 
E_coul   =     27053.2324 E_long   =    -31745.9419 Press    =        47.9032 
Volume   =     11021.9317 
SHAKE stats (type/ave/delta) on step 370000
  2 0.956969 5.63725e-06
  2 104.52 0.000465963
---------------- Step   370000 ----- CPU =   6577.4305 (sec) ----------------
TotEng   =     -3348.1087 KinEng   =       646.0529 Temp     =       299.3610 
PotEng   =     -3994.1615 E_bond   =         1.5668 E_angle  =         1.1790 
E_dihed  =         0.0000 E_impro  =         0.0000 E_vdwl   =       695.4872 
E_coul   =     27046.7345 E_long   =    -31739.1291 Press    =     -1446.7875 
Volume   =     11056.5099 
SHAKE stats (type/ave/delta) on step 375000
  2 0.956954 7.74405e-06
  2 104.52 0.000638657
---------------- Step   375000 ----- CPU =   6666.4495 (sec) ----------------
TotEng   =     -3290.2501 KinEng   =       655.1139 Temp     =       303.5596 
PotEng   =     -3945.3641 E_bond   =         1.3756 E_angle  =         1.3259 
E_dihed  =         0.0000 E_impro  =         0.0000 E_vdwl   =       796.7441 
E_coul   =     26996.0603 E_long   =    -31740.8699 Press    =       862.7893 
Volume   =     11128.5156 
SHAKE stats (type/ave/delta) on step 380000
  2 0.957026 4.85599e-06
  2 104.52 0.000428398
---------------- Step   380000 ----- CPU =   6746.9698 (sec) ----------------
TotEng   =     -3285.8126 KinEng   =       645.0620 Temp     =       298.9018 
PotEng   =     -3930.8746 E_bond   =         0.5894 E_angle  =         2.8113 
E_dihed  =         0.0000 E_impro  =         0.0000 E_vdwl   =       690.5863 
E_coul   =     27119.6573 E_long   =    -31744.5189 Press    =      -732.3773 
Volume   =     10938.4222 
SHAKE stats (type/ave/delta) on step 385000
  2 0.957036 7.55085e-06
  2 104.52 0.000583867
---------------- Step   385000 ----- CPU =   6834.6986 (sec) ----------------
TotEng   =     -3291.2916 KinEng   =       666.5080 Temp     =       308.8393 
PotEng   =     -3957.7996 E_bond   =         1.0588 E_angle  =         3.5037 
E_dihed  =         0.0000 E_impro  =         0.0000 E_vdwl   =       789.2166 
E_coul   =     26989.5332 E_long   =    -31741.1120 Press    =       919.2780 
Volume   =     11007.8118 
SHAKE stats (type/ave/delta) on step 390000
  2 0.957033 8.5443e-06
  2 104.52 0.000754641
---------------- Step   390000 ----- CPU =   6913.3703 (sec) ----------------
TotEng   =     -3237.8075 KinEng   =       658.9996 Temp     =       305.3601 
PotEng   =     -3896.8071 E_bond   =         0.6188 E_angle  =         1.9257 
E_dihed  =         0.0000 E_impro  =         0.0000 E_vdwl   =       730.6386 
E_coul   =     27108.2080 E_long   =    -31738.1982 Press    =        51.6195 
Volume   =     11084.1621 
SHAKE stats (type/ave/delta) on step 395000
  2 0.956956 5.3371e-06
  2 104.52 0.000464282
---------------- Step   395000 ----- CPU =   6997.6464 (sec) ----------------
TotEng   =     -3268.2884 KinEng   =       688.3985 Temp     =       318.9826 
PotEng   =     -3956.6869 E_bond   =         0.8987 E_angle  =         1.0082 
E_dihed  =         0.0000 E_impro  =         0.0000 E_vdwl   =       715.2409 
E_coul   =     27069.6037 E_long   =    -31743.4384 Press    =      -441.0949 
Volume   =     10940.7343 
SHAKE stats (type/ave/delta) on step 400000
  2 0.957046 6.33673e-06
  2 104.52 0.000497663
---------------- Step   400000 ----- CPU =   7079.9782 (sec) ----------------
TotEng   =     -3315.1245 KinEng   =       653.7941 Temp     =       302.9480 
PotEng   =     -3968.9187 E_bond   =         2.4670 E_angle  =         3.3015 
E_dihed  =         0.0000 E_impro  =         0.0000 E_vdwl   =       775.1954 
E_coul   =     26991.0115 E_long   =    -31740.8940 Press    =       603.6036 
Volume   =     10973.3995 
SHAKE stats (type/ave/delta) on step 405000
  2 0.956937 1.25386e-05
  2 104.52 0.000950017
---------------- Step   405000 ----- CPU =   7172.6015 (sec) ----------------
TotEng   =     -3302.3142 KinEng   =       646.1417 Temp     =       299.4021 
PotEng   =     -3948.4558 E_bond   =         3.3912 E_angle  =         0.5735 
E_dihed  =         0.0000 E_impro  =         0.0000 E_vdwl   =       774.0013 
E_coul   =     27015.0246 E_long   =    -31741.4465 Press    =       954.1620 
Volume   =     10866.8467 
SHAKE stats (type/ave/delta) on step 410000
  2 0.95701 8.37793e-06
  2 104.52 0.000742429
---------------- Step   410000 ----- CPU =   7260.8794 (sec) ----------------
TotEng   =     -3358.6156 KinEng   =       618.8475 Temp     =       286.7548 
PotEng   =     -3977.4630 E_bond   =         1.5286 E_angle  =         0.8152 
E_dihed  =         0.0000 E_impro  =         0.0000 E_vdwl   =       773.4300 
E_coul   =     26990.2390 E_long   =    -31743.4759 Press    =       -12.5609 
Volume   =     11132.4649 
SHAKE stats (type/ave/delta) on step 415000
  2 0.956981 5.6159e-06
  2 104.52 0.000548463
---------------- Step   415000 ----- CPU =   7345.5313 (sec) ----------------
TotEng   =     -3327.8800 KinEng   =       618.9255 Temp     =       286.7910 
PotEng   =     -3946.8056 E_bond   =         1.0503 E_angle  =         1.0018 
E_dihed  =         0.0000 E_impro  =         0.0000 E_vdwl   =       709.7718 
E_coul   =     27085.4537 E_long   =    -31744.0832 Press    =      -814.5518 
Volume   =     10971.8232 
SHAKE stats (type/ave/delta) on step 420000
  2 0.957038 5.08153e-06
  2 104.52 0.00045027
---------------- Step   420000 ----- CPU =   7436.5420 (sec) ----------------
TotEng   =     -3350.3978 KinEng   =       636.2573 Temp     =       294.8220 
PotEng   =     -3986.6551 E_bond   =         4.2923 E_angle  =         1.7346 
E_dihed  =         0.0000 E_impro  =         0.0000 E_vdwl   =       749.6052 
E_coul   =     26999.2721 E_long   =    -31741.5593 Press    =      -234.8002 
Volume   =     11038.5967 
SHAKE stats (type/ave/delta) on step 425000
  2 0.957002 8.18566e-06
  2 104.52 0.000771468
---------------- Step   425000 ----- CPU =   7527.9443 (sec) ----------------
TotEng   =     -3279.0522 KinEng   =       662.5950 Temp     =       307.0261 
PotEng   =     -3941.6472 E_bond   =         2.5847 E_angle  =         1.9115 
E_dihed  =         0.0000 E_impro  =         0.0000 E_vdwl   =       804.4695 
E_coul   =     26989.7388 E_long   =    -31740.3517 Press    =       493.5455 
Volume   =     11363.5972 
SHAKE stats (type/ave/delta) on step 430000
  2 0.957017 1.1116e-05
  2 104.52 0.000901952
---------------- Step   430000 ----- CPU =   7618.4654 (sec) ----------------
TotEng   =     -3287.7581 KinEng   =       653.0874 Temp     =       302.6206 
PotEng   =     -3940.8456 E_bond   =         1.3329 E_angle  =         2.7063 
E_dihed  =         0.0000 E_impro  =         0.0000 E_vdwl   =       764.1557 
E_coul   =     27036.7704 E_long   =    -31745.8108 Press    =       683.5440 
Volume   =     10831.6949 
SHAKE stats (type/ave/delta) on step 435000
  2 0.957006 4.62389e-06
  2 104.52 0.00059125
---------------- Step   435000 ----- CPU =   7710.4529 (sec) ----------------
TotEng   =     -3291.7549 KinEng   =       645.3880 Temp     =       299.0529 
PotEng   =     -3937.1428 E_bond   =         1.6782 E_angle  =         3.7674 
E_dihed  =         0.0000 E_impro  =         0.0000 E_vdwl   =       703.7682 
E_coul   =     27098.3840 E_long   =    -31744.7406 Press    =      -376.2740 
Volume   =     10897.2320 
SHAKE stats (type/ave/delta) on step 440000
  2 0.957024 1.49908e-05
  2 104.52 0.000800495
---------------- Step   440000 ----- CPU =   7797.7104 (sec) ----------------
TotEng   =     -3308.7923 KinEng   =       641.6159 Temp     =       297.3050 
PotEng   =     -3950.4082 E_bond   =         0.2025 E_angle  =         1.6342 
E_dihed  =         0.0000 E_impro  =         0.0000 E_vdwl   =       769.4398 
E_coul   =     27024.5117 E_long   =    -31746.1963 Press    =       855.6024 
Volume   =     10817.4435 
SHAKE stats (type/ave/delta) on step 445000
  2 0.956974 9.25381e-06
  2 104.52 0.000672164
---------------- Step   445000 ----- CPU =   7891.9163 (sec) ----------------
TotEng   =     -3253.9735 KinEng   =       652.6863 Temp     =       302.4347 
PotEng   =     -3906.6597 E_bond   =         1.8155 E_angle  =         2.1958 
E_dihed  =         0.0000 E_impro  =         0.0000 E_vdwl   =       664.5241 
E_coul   =     27169.6424 E_long   =    -31744.8375 Press    =     -1223.1252 
Volume   =     11121.4162 
SHAKE stats (type/ave/delta) on step 450000
  2 0.957005 5.22918e-06
  2 104.52 0.000460203
---------------- Step   450000 ----- CPU =   7983.9625 (sec) ----------------
TotEng   =     -3283.2784 KinEng   =       640.9885 Temp     =       297.0143 
PotEng   =     -3924.2669 E_bond   =         1.3554 E_angle  =         1.3219 
E_dihed  =         0.0000 E_impro  =         0.0000 E_vdwl   =       722.9620 
E_coul   =     27090.3009 E_long   =    -31740.2070 Press    =      -424.2671 
Volume   =     11119.9223 
SHAKE stats (type/ave/delta) on step 455000
  2 0.957052 6.76177e-06
  2 104.52 0.000554547
---------------- Step   455000 ----- CPU =   8071.7554 (sec) ----------------
TotEng   =     -3302.0331 KinEng   =       663.1361 Temp     =       307.2768 
PotEng   =     -3965.1691 E_bond   =         1.7286 E_angle  =         1.2767 
E_dihed  =         0.0000 E_impro  =         0.0000 E_vdwl   =       770.4464 
E_coul   =     27002.8924 E_long   =    -31741.5133 Press    =       920.1603 
Volume   =     10889.3563 
SHAKE stats (type/ave/delta) on step 460000
  2 0.957016 5.01488e-06
  2 104.52 0.000386738
---------------- Step   460000 ----- CPU =   8153.8003 (sec) ----------------
TotEng   =     -3276.6932 KinEng   =       637.8239 Temp     =       295.5479 
PotEng   =     -3914.5171 E_bond   =         1.1832 E_angle  =         1.1399 
E_dihed  =         0.0000 E_impro  =         0.0000 E_vdwl   =       710.5307 
E_coul   =     27116.9381 E_long   =    -31744.3090 Press    =      -429.0758 
Volume   =     11117.8253 
SHAKE stats (type/ave/delta) on step 465000
  2 0.956951 1.19338e-05
  2 104.52 0.00127145
---------------- Step   465000 ----- CPU =   8236.5789 (sec) ----------------
TotEng   =     -3294.4250 KinEng   =       627.6595 Temp     =       290.8381 
PotEng   =     -3922.0845 E_bond   =         0.6794 E_angle  =         1.5946 
E_dihed  =         0.0000 E_impro  =         0.0000 E_vdwl   =       723.3709 
E_coul   =     27090.6057 E_long   =    -31738.3351 Press    =      -285.5985 
Volume   =     11077.2248 
SHAKE stats (type/ave/delta) on step 470000
  2 0.956953 9.51511e-06
  2 104.52 0.000761881
---------------- Step   470000 ----- CPU =   8324.7394 (sec) ----------------
TotEng   =     -3237.8807 KinEng   =       672.0982 Temp     =       311.4296 
PotEng   =     -3909.9790 E_bond   =         1.6427 E_angle  =         0.5952 
E_dihed  =         0.0000 E_impro  =         0.0000 E_vdwl   =       711.6903 
E_coul   =     27116.3439 E_long   =    -31740.2510 Press    =      -649.5249 
Volume   =     11136.6208 
SHAKE stats (type/ave/delta) on step 475000
  2 0.957005 4.94598e-06
  2 104.52 0.000428616
---------------- Step   475000 ----- CPU =   8416.0033 (sec) ----------------
TotEng   =     -3340.1011 KinEng   =       629.2273 Temp     =       291.5645 
PotEng   =     -3969.3284 E_bond   =         0.7809 E_angle  =         1.9815 
E_dihed  =         0.0000 E_impro  =         0.0000 E_vdwl   =       798.9086 
[...]
---------------- Step  2320000 ----- CPU =  42113.5394 (sec) ----------------
TotEng   =     -3291.4060 KinEng   =       648.5822 Temp     =       300.5330 
PotEng   =     -3939.9882 E_bond   =         0.9242 E_angle  =         1.5728 
E_dihed  =         0.0000 E_impro  =         0.0000 E_vdwl   =       733.9734 
E_coul   =     27064.4703 E_long   =    -31740.9290 Press    =        70.2048 
Volume   =     10809.3982 
SHAKE stats (type/ave/delta) on step 2325000
  2 0.95697 9.3491e-06
  2 104.52 0.000554477
---------------- Step  2325000 ----- CPU =  42200.8522 (sec) ----------------
TotEng   =     -3231.2439 KinEng   =       662.6546 Temp     =       307.0537 
PotEng   =     -3893.8984 E_bond   =         2.5146 E_angle  =         1.7633 
E_dihed  =         0.0000 E_impro  =         0.0000 E_vdwl   =       749.4302 
E_coul   =     27089.6401 E_long   =    -31737.2466 Press    =       465.2336 
Volume   =     10974.3335 
SHAKE stats (type/ave/delta) on step 2330000
  2 0.956983 5.81839e-06
  2 104.52 0.000448164
---------------- Step  2330000 ----- CPU =  42293.6694 (sec) ----------------
TotEng   =     -3283.4650 KinEng   =       643.0526 Temp     =       297.9707 
PotEng   =     -3926.5176 E_bond   =         3.1274 E_angle  =         1.0738 
E_dihed  =         0.0000 E_impro  =         0.0000 E_vdwl   =       757.9464 
E_coul   =     27051.2345 E_long   =    -31739.8995 Press    =       481.9524 
Volume   =     10903.7694 
SHAKE stats (type/ave/delta) on step 2335000
  2 0.957058 8.09957e-06
  2 104.52 0.000575876
---------------- Step  2335000 ----- CPU =  42386.5047 (sec) ----------------
TotEng   =     -3360.0099 KinEng   =       619.8856 Temp     =       287.2359 
PotEng   =     -3979.8954 E_bond   =         1.1116 E_angle  =         1.3172 
E_dihed  =         0.0000 E_impro  =         0.0000 E_vdwl   =       740.0911 
E_coul   =     27021.1332 E_long   =    -31743.5485 Press    =      -305.1091 
Volume   =     10754.2068 
SHAKE stats (type/ave/delta) on step 2340000
  2 0.956958 7.71718e-06
  2 104.52 0.000514298
---------------- Step  2340000 ----- CPU =  42468.2201 (sec) ----------------
TotEng   =     -3307.9215 KinEng   =       660.0794 Temp     =       305.8605 
PotEng   =     -3968.0010 E_bond   =         1.3906 E_angle  =         2.0682 
E_dihed  =         0.0000 E_impro  =         0.0000 E_vdwl   =       757.8997 
E_coul   =     27014.9964 E_long   =    -31744.3559 Press    =       373.9398 
Volume   =     10776.7910 
SHAKE stats (type/ave/delta) on step 2345000
  2 0.957011 7.55894e-06
  2 104.52 0.000743494
---------------- Step  2345000 ----- CPU =  42555.2353 (sec) ----------------
TotEng   =     -3337.1605 KinEng   =       652.2062 Temp     =       302.2123 
PotEng   =     -3989.3667 E_bond   =         1.7930 E_angle  =         2.6550 
E_dihed  =         0.0000 E_impro  =         0.0000 E_vdwl   =       729.5055 
E_coul   =     27021.0871 E_long   =    -31744.4074 Press    =      -304.1321 
Volume   =     10869.3675 
SHAKE stats (type/ave/delta) on step 2350000
  2 0.957014 5.74505e-06
  2 104.52 0.000475932
---------------- Step  2350000 ----- CPU =  42647.7736 (sec) ----------------
TotEng   =     -3320.6900 KinEng   =       635.7203 Temp     =       294.5732 
PotEng   =     -3956.4103 E_bond   =         0.0905 E_angle  =         0.8922 
E_dihed  =         0.0000 E_impro  =         0.0000 E_vdwl   =       734.6822 
E_coul   =     27049.0444 E_long   =    -31741.1195 Press    =       139.7431 
Volume   =     10698.2452 
SHAKE stats (type/ave/delta) on step 2355000
  2 0.956989 6.37101e-06
  2 104.52 0.000463356
---------------- Step  2355000 ----- CPU =  42739.5000 (sec) ----------------
TotEng   =     -3273.0089 KinEng   =       641.0306 Temp     =       297.0338 
PotEng   =     -3914.0396 E_bond   =         0.8514 E_angle  =         2.9692 
E_dihed  =         0.0000 E_impro  =         0.0000 E_vdwl   =       740.1832 
E_coul   =     27082.4046 E_long   =    -31740.4479 Press    =       141.7433 
Volume   =     10984.6977 
SHAKE stats (type/ave/delta) on step 2360000
  2 0.956985 9.36724e-06
  2 104.52 0.00065568
---------------- Step  2360000 ----- CPU =  42825.0140 (sec) ----------------
TotEng   =     -3342.4881 KinEng   =       626.7426 Temp     =       290.4132 
PotEng   =     -3969.2306 E_bond   =         0.2498 E_angle  =         2.3627 
E_dihed  =         0.0000 E_impro  =         0.0000 E_vdwl   =       733.5716 
E_coul   =     27036.8153 E_long   =    -31742.2300 Press    =      -336.5258 
Volume   =     10847.8938 
SHAKE stats (type/ave/delta) on step 2365000
  2 0.956971 7.1696e-06
  2 104.52 0.0004844
---------------- Step  2365000 ----- CPU =  42911.8289 (sec) ----------------
TotEng   =     -3269.1814 KinEng   =       651.2761 Temp     =       301.7813 
PotEng   =     -3920.4575 E_bond   =         1.9507 E_angle  =         1.4505 
E_dihed  =         0.0000 E_impro  =         0.0000 E_vdwl   =       749.7077 
E_coul   =     27069.3386 E_long   =    -31742.9050 Press    =       220.1228 
Volume   =     11000.3155 
SHAKE stats (type/ave/delta) on step 2370000
  2 0.956999 7.01516e-06
  2 104.52 0.000547507
---------------- Step  2370000 ----- CPU =  43005.5906 (sec) ----------------
TotEng   =     -3339.9134 KinEng   =       648.0422 Temp     =       300.2828 
PotEng   =     -3987.9556 E_bond   =         1.5690 E_angle  =         1.8333 
E_dihed  =         0.0000 E_impro  =         0.0000 E_vdwl   =       755.4040 
E_coul   =     26998.7245 E_long   =    -31745.4863 Press    =         9.4973 
Volume   =     10827.0212 
SHAKE stats (type/ave/delta) on step 2375000
  2 0.956981 8.02179e-06
  2 104.52 0.000678626
---------------- Step  2375000 ----- CPU =  43091.9402 (sec) ----------------
TotEng   =     -3298.4535 KinEng   =       653.3179 Temp     =       302.7274 
PotEng   =     -3951.7714 E_bond   =         1.9633 E_angle  =         0.5614 
E_dihed  =         0.0000 E_impro  =         0.0000 E_vdwl   =       728.9395 
E_coul   =     27061.3067 E_long   =    -31744.5424 Press    =      -213.5921 
Volume   =     10731.9175 
SHAKE stats (type/ave/delta) on step 2380000
  2 0.956993 6.81795e-06
  2 104.52 0.000578084
---------------- Step  2380000 ----- CPU =  43171.9091 (sec) ----------------
TotEng   =     -3331.7473 KinEng   =       619.2780 Temp     =       286.9544 
PotEng   =     -3951.0254 E_bond   =         1.1558 E_angle  =         1.8748 
E_dihed  =         0.0000 E_impro  =         0.0000 E_vdwl   =       707.7733 
E_coul   =     27081.3130 E_long   =    -31743.1423 Press    =      -991.7484 
Volume   =     10857.6152 
SHAKE stats (type/ave/delta) on step 2385000
  2 0.957003 9.88626e-06
  2 104.52 0.000907016
---------------- Step  2385000 ----- CPU =  43248.0897 (sec) ----------------
TotEng   =     -3335.0771 KinEng   =       618.4139 Temp     =       286.5540 
PotEng   =     -3953.4911 E_bond   =         1.9844 E_angle  =         0.4495 
E_dihed  =         0.0000 E_impro  =         0.0000 E_vdwl   =       733.6036 
E_coul   =     27051.4713 E_long   =    -31741.0000 Press    =      -196.1480 
Volume   =     10963.6553 
SHAKE stats (type/ave/delta) on step 2390000
  2 0.956996 7.01392e-06
  2 104.52 0.00056576
---------------- Step  2390000 ----- CPU =  43331.0291 (sec) ----------------
TotEng   =     -3255.3338 KinEng   =       657.8749 Temp     =       304.8389 
PotEng   =     -3913.2087 E_bond   =         0.7456 E_angle  =         1.9363 
E_dihed  =         0.0000 E_impro  =         0.0000 E_vdwl   =       765.8928 
E_coul   =     27065.4301 E_long   =    -31747.2135 Press    =       843.4372 
Volume   =     10853.7012 
SHAKE stats (type/ave/delta) on step 2395000
  2 0.957063 8.6834e-06
  2 104.52 0.000811407
---------------- Step  2395000 ----- CPU =  43422.2847 (sec) ----------------
TotEng   =     -3303.2215 KinEng   =       652.3308 Temp     =       302.2700 
PotEng   =     -3955.5523 E_bond   =         0.9835 E_angle  =         1.9591 
E_dihed  =         0.0000 E_impro  =         0.0000 E_vdwl   =       785.6078 
E_coul   =     26998.8526 E_long   =    -31742.9553 Press    =       480.6840 
Volume   =     10875.1695 
SHAKE stats (type/ave/delta) on step 2400000
  2 0.957012 6.92642e-06
  2 104.52 0.000555206
---------------- Step  2400000 ----- CPU =  43513.1936 (sec) ----------------
TotEng   =     -3283.0770 KinEng   =       664.9542 Temp     =       308.1193 
PotEng   =     -3948.0312 E_bond   =         2.4430 E_angle  =         0.4191 
E_dihed  =         0.0000 E_impro  =         0.0000 E_vdwl   =       779.0928 
E_coul   =     27008.1024 E_long   =    -31738.0884 Press    =      1481.3299 
Volume   =     10669.5089 
SHAKE stats (type/ave/delta) on step 2405000
  2 0.957047 5.84544e-06
  2 104.52 0.000485733
---------------- Step  2405000 ----- CPU =  43605.9794 (sec) ----------------
TotEng   =     -3325.2814 KinEng   =       674.1410 Temp     =       312.3761 
PotEng   =     -3999.4224 E_bond   =         1.5931 E_angle  =         0.8433 
E_dihed  =         0.0000 E_impro  =         0.0000 E_vdwl   =       834.9015 
E_coul   =     26906.7785 E_long   =    -31743.5388 Press    =      1989.1766 
Volume   =     10628.3147 
SHAKE stats (type/ave/delta) on step 2410000
  2 0.956978 4.48004e-06
  2 104.52 0.000390132
---------------- Step  2410000 ----- CPU =  43691.1884 (sec) ----------------
TotEng   =     -3235.0687 KinEng   =       666.7267 Temp     =       308.9406 
PotEng   =     -3901.7954 E_bond   =         2.1003 E_angle  =         1.2106 
E_dihed  =         0.0000 E_impro  =         0.0000 E_vdwl   =       728.3594 
E_coul   =     27107.8561 E_long   =    -31741.3218 Press    =       385.8466 
Volume   =     10732.3298 
SHAKE stats (type/ave/delta) on step 2415000
  2 0.957034 6.3008e-06
  2 104.52 0.000526707
---------------- Step  2415000 ----- CPU =  43778.4172 (sec) ----------------
TotEng   =     -3314.1616 KinEng   =       608.1096 Temp     =       281.7792 
PotEng   =     -3922.2712 E_bond   =         1.2021 E_angle  =         1.9766 
E_dihed  =         0.0000 E_impro  =         0.0000 E_vdwl   =       722.8586 
E_coul   =     27095.2912 E_long   =    -31743.5996 Press    =      -471.4595 
Volume   =     10999.9649 
SHAKE stats (type/ave/delta) on step 2420000
  2 0.956963 6.36919e-06
  2 104.52 0.000487015
---------------- Step  2420000 ----- CPU =  43863.6591 (sec) ----------------
TotEng   =     -3191.6322 KinEng   =       654.1004 Temp     =       303.0900 
PotEng   =     -3845.7326 E_bond   =         1.7282 E_angle  =         1.2670 
E_dihed  =         0.0000 E_impro  =         0.0000 E_vdwl   =       694.8000 
E_coul   =     27197.8136 E_long   =    -31741.3414 Press    =      -279.5408 
Volume   =     11067.8998 
SHAKE stats (type/ave/delta) on step 2425000
  2 0.957013 8.90711e-06
  2 104.52 0.000524968
---------------- Step  2425000 ----- CPU =  43944.0613 (sec) ----------------
TotEng   =     -3243.0839 KinEng   =       700.6716 Temp     =       324.6696 
PotEng   =     -3943.7555 E_bond   =         0.5382 E_angle  =         2.5009 
E_dihed  =         0.0000 E_impro  =         0.0000 E_vdwl   =       809.8751 
E_coul   =     26982.5927 E_long   =    -31739.2623 Press    =      1382.3776 
Volume   =     10996.0700 
SHAKE stats (type/ave/delta) on step 2430000
  2 0.95702 8.36902e-06
  2 104.52 0.000548969
---------------- Step  2430000 ----- CPU =  44028.9394 (sec) ----------------
TotEng   =     -3300.9501 KinEng   =       651.4309 Temp     =       301.8530 
PotEng   =     -3952.3810 E_bond   =         2.1519 E_angle  =         1.6388 
E_dihed  =         0.0000 E_impro  =         0.0000 E_vdwl   =       748.7710 
E_coul   =     27039.9181 E_long   =    -31744.8609 Press    =       198.8758 
Volume   =     10959.7306 
SHAKE stats (type/ave/delta) on step 2435000
  2 0.956965 7.65987e-06
  2 104.52 0.000604042
---------------- Step  2435000 ----- CPU =  44149.4189 (sec) ----------------
TotEng   =     -3294.3533 KinEng   =       651.7886 Temp     =       302.0187 
PotEng   =     -3946.1420 E_bond   =         1.2940 E_angle  =         1.5754 
E_dihed  =         0.0000 E_impro  =         0.0000 E_vdwl   =       808.1391 
E_coul   =     26986.2630 E_long   =    -31743.4134 Press    =      1183.5538 
Volume   =     10726.7962 
SHAKE stats (type/ave/delta) on step 2440000
  2 0.956967 7.03527e-06
  2 104.52 0.000518545
---------------- Step  2440000 ----- CPU =  44240.1805 (sec) ----------------
TotEng   =     -3304.3221 KinEng   =       620.9363 Temp     =       287.7227 
PotEng   =     -3925.2584 E_bond   =         1.6123 E_angle  =         0.9365 
E_dihed  =         0.0000 E_impro  =         0.0000 E_vdwl   =       763.6445 
E_coul   =     27049.0803 E_long   =    -31740.5320 Press    =       814.3414 
Volume   =     10700.3858 
SHAKE stats (type/ave/delta) on step 2445000
  2 0.957054 1.82094e-05
  2 104.52 0.00111885
---------------- Step  2445000 ----- CPU =  44331.4694 (sec) ----------------
TotEng   =     -3268.7379 KinEng   =       646.8931 Temp     =       299.7503 
PotEng   =     -3915.6311 E_bond   =         2.3460 E_angle  =         1.0949 
E_dihed  =         0.0000 E_impro  =         0.0000 E_vdwl   =       730.8223 
E_coul   =     27094.2177 E_long   =    -31744.1120 Press    =        69.5948 
Volume   =     10945.4601 
SHAKE stats (type/ave/delta) on step 2450000
  2 0.957026 5.10964e-06
  2 104.52 0.000514186
---------------- Step  2450000 ----- CPU =  44421.9990 (sec) ----------------
TotEng   =     -3270.7581 KinEng   =       639.5105 Temp     =       296.3295 
PotEng   =     -3910.2686 E_bond   =         1.3441 E_angle  =         0.6911 
E_dihed  =         0.0000 E_impro  =         0.0000 E_vdwl   =       777.3862 
E_coul   =     27049.0633 E_long   =    -31738.7533 Press    =      1046.3179 
Volume   =     10721.7293 
SHAKE stats (type/ave/delta) on step 2455000
  2 0.957016 2.40826e-05
  2 104.52 0.00128025
---------------- Step  2455000 ----- CPU =  44513.0666 (sec) ----------------
TotEng   =     -3291.3151 KinEng   =       626.5655 Temp     =       290.3311 
PotEng   =     -3917.8806 E_bond   =         2.2634 E_angle  =         0.3557 
E_dihed  =         0.0000 E_impro  =         0.0000 E_vdwl   =       688.4904 
E_coul   =     27130.3545 E_long   =    -31739.3446 Press    =      -846.0184 
Volume   =     10966.2350 
SHAKE stats (type/ave/delta) on step 2460000
  2 0.956941 4.83286e-06
  2 104.52 0.000400004
---------------- Step  2460000 ----- CPU =  44600.2070 (sec) ----------------
TotEng   =     -3340.5648 KinEng   =       627.9889 Temp     =       290.9907 
PotEng   =     -3968.5538 E_bond   =         0.8283 E_angle  =         1.4609 
E_dihed  =         0.0000 E_impro  =         0.0000 E_vdwl   =       730.1383 
E_coul   =     27040.6832 E_long   =    -31741.6645 Press    =      -544.0823 
Volume   =     10956.7248 
SHAKE stats (type/ave/delta) on step 2465000
  2 0.956985 5.47339e-06
  2 104.52 0.00044664
---------------- Step  2465000 ----- CPU =  44687.6312 (sec) ----------------
TotEng   =     -3298.0874 KinEng   =       644.3340 Temp     =       298.5645 
PotEng   =     -3942.4214 E_bond   =         1.5080 E_angle  =         2.2295 
E_dihed  =         0.0000 E_impro  =         0.0000 E_vdwl   =       846.9471 
E_coul   =     26950.0973 E_long   =    -31743.2032 Press    =      2760.9960 
Volume   =     10697.9494 
SHAKE stats (type/ave/delta) on step 2470000
  2 0.957062 5.00784e-06
  2 104.52 0.000386759
---------------- Step  2470000 ----- CPU =  44777.1894 (sec) ----------------
TotEng   =     -3325.6276 KinEng   =       654.4073 Temp     =       303.2322 
PotEng   =     -3980.0349 E_bond   =         1.6799 E_angle  =         2.1269 
E_dihed  =         0.0000 E_impro  =         0.0000 E_vdwl   =       749.9760 
E_coul   =     27010.3343 E_long   =    -31744.1520 Press    =      -297.8730 
Volume   =     11070.2513 
SHAKE stats (type/ave/delta) on step 2475000
  2 0.957011 7.70687e-06
  2 104.52 0.000542514
---------------- Step  2475000 ----- CPU =  44865.3599 (sec) ----------------
TotEng   =     -3260.1238 KinEng   =       655.7550 Temp     =       303.8566 
PotEng   =     -3915.8788 E_bond   =         1.5942 E_angle  =         0.5384 
E_dihed  =         0.0000 E_impro  =         0.0000 E_vdwl   =       726.0346 
E_coul   =     27100.0457 E_long   =    -31744.0916 Press    =       242.6691 
Volume   =     10813.5378 
SHAKE stats (type/ave/delta) on step 2480000
  2 0.956974 6.55382e-06
  2 104.52 0.000480532
---------------- Step  2480000 ----- CPU =  44955.1693 (sec) ----------------
TotEng   =     -3256.9510 KinEng   =       676.3521 Temp     =       313.4007 
PotEng   =     -3933.3031 E_bond   =         3.0493 E_angle  =         0.5324 
E_dihed  =         0.0000 E_impro  =         0.0000 E_vdwl   =       732.9043 
E_coul   =     27074.3383 E_long   =    -31744.1274 Press    =       264.2060 
Volume   =     10863.5999 
SHAKE stats (type/ave/delta) on step 2485000
  2 0.957006 7.19031e-06
  2 104.52 0.000563451
---------------- Step  2485000 ----- CPU =  45044.4499 (sec) ----------------
TotEng   =     -3254.2922 KinEng   =       675.7305 Temp     =       313.1127 
PotEng   =     -3930.0227 E_bond   =         0.3519 E_angle  =         2.4138 
E_dihed  =         0.0000 E_impro  =         0.0000 E_vdwl   =       754.5926 
E_coul   =     27055.1242 E_long   =    -31742.5052 Press    =      -155.6829 
Volume   =     11336.1483 
SHAKE stats (type/ave/delta) on step 2490000
  2 0.956988 1.234e-05
  2 104.52 0.00102106
---------------- Step  2490000 ----- CPU =  45131.3193 (sec) ----------------
TotEng   =     -3292.0095 KinEng   =       643.7634 Temp     =       298.3001 
PotEng   =     -3935.7729 E_bond   =         0.7882 E_angle  =         2.2524 
E_dihed  =         0.0000 E_impro  =         0.0000 E_vdwl   =       762.2722 
E_coul   =     27043.2606 E_long   =    -31744.3463 Press    =       272.4979 
Volume   =     10937.6162 
SHAKE stats (type/ave/delta) on step 2495000
  2 0.956962 4.75352e-06
  2 104.52 0.000380464
---------------- Step  2495000 ----- CPU =  45215.8928 (sec) ----------------
TotEng   =     -3339.5312 KinEng   =       638.9738 Temp     =       296.0807 
PotEng   =     -3978.5049 E_bond   =         0.7447 E_angle  =         1.6743 
E_dihed  =         0.0000 E_impro  =         0.0000 E_vdwl   =       757.4489 
E_coul   =     27001.7594 E_long   =    -31740.1322 Press    =       107.3971 
Volume   =     11022.7570 
SHAKE stats (type/ave/delta) on step 2500000
  2 0.956993 4.35713e-06
  2 104.52 0.000461539
---------------- Step  2500000 ----- CPU =  45287.8838 (sec) ----------------
TotEng   =     -3195.5647 KinEng   =       649.3115 Temp     =       300.8709 
PotEng   =     -3844.8762 E_bond   =         1.4206 E_angle  =         1.3622 
E_dihed  =         0.0000 E_impro  =         0.0000 E_vdwl   =       709.5066 
E_coul   =     27184.6954 E_long   =    -31741.8610 Press    =        57.2968 
Volume   =     10966.4680 
Loop time of 45287.9 on 8 procs for 2500000 steps with 1085 atoms

Pair  time (%) = 18184.2 (40.1524)
Bond  time (%) = 5.18986 (0.0114597)
Kspce time (%) = 17719.9 (39.1273)
Neigh time (%) = 640.2 (1.41362)
Comm  time (%) = 4017.07 (8.87009)
Outpt time (%) = 0.89314 (0.00197214)
Other time (%) = 4720.42 (10.4232)

FFT time (% of Kspce) = 788.928 (4.45221)
FFT Gflps 3d (1d only) = 1.73774 21.3817

Nlocal:    135.625 ave 143 max 125 min
Histogram: 1 0 1 0 1 0 1 2 1 1
Nghost:    4340.12 ave 4400 max 4293 min
Histogram: 1 1 2 0 0 1 1 1 0 1
Neighs:    51557.6 ave 57952 max 43573 min
Histogram: 1 1 0 0 2 1 0 0 1 2

Total # of neighbors = 412461
Ave neighs/atom = 380.148
Ave special neighs/atom = 2.00922
Neighbor list builds = 197163
Dangerous builds = 22444

# write_restart restart.*.lmp
write_data data.*.lmp
PPPM initialization ...
  G vector (1/distance) = 0.285695
  grid = 15 15 15
  stencil order = 5
  estimated absolute RMS force accuracy = 0.0145619
  estimated relative force accuracy = 4.38526e-05
  using double precision FFTs
  3d grid and FFT values/proc = 2744 512
