LAMMPS (29 Aug 2014)
WARNING: OMP_NUM_THREADS environment is not set. (../comm.cpp:88)
  using 1 OpenMP thread(s) per MPI task
  orthogonal box = (-11.356 -11.356 -11.356) to (11.356 11.356 11.356)
  1 by 1 by 1 MPI processor grid
  reading atoms ...
  649 atoms
  scanning bonds ...
  1 = max bonds/atom
  scanning angles ...
  1 = max angles/atom
  reading bonds ...
  432 bonds
  reading angles ...
  216 angles
  2 = max # of 1-2 neighbors
  1 = max # of 1-3 neighbors
  1 = max # of 1-4 neighbors
  2 = max # of special neighbors
  0 = # of size 2 clusters
  0 = # of size 3 clusters
  0 = # of size 4 clusters
  216 = # of frozen angles
PPPM initialization ...
  G vector (1/distance) = 0.265649
  grid = 12 12 12
  stencil order = 5
  estimated absolute RMS force accuracy = 0.0216175
  estimated relative force accuracy = 6.51006e-05
  using double precision FFTs
  3d grid and FFT values/proc = 6859 1728
Memory usage per processor = 7.23959 Mbytes
Step TotEng PotEng KinEng E_vdwl E_coul E_long Temp Press 
       0    474.42204   -105.04744    579.46947    -110.8269    11459.985   -11454.205          450    -1294.969 
      30    158.15616   -635.99432    794.15049   -121.40952    11036.991   -11551.576    616.71535   -2684.3469 
      60    70.293635   -730.01774    800.31137   -111.83995    10926.873   -11545.051    621.49972   -3066.1442 
      90   -30.813114   -841.39861     810.5855   -59.036988    10775.522   -11557.884    629.47833   -2622.7602 
     120   -143.24124   -879.04449    735.80325    6.5260512    10666.754   -11552.324    571.40449   -1391.3889 
     150   -253.42457    -1031.606    778.18144    56.074865     10470.11   -11557.791    604.31423   -1200.1376 
     180   -369.30561   -1075.0612    705.75561    119.43323    10373.004   -11567.498    548.07033   -151.36413 
     210   -481.66189   -1188.9909    707.32896    117.37187    10255.512   -11561.874    549.29215   -743.44056 
     240   -585.11947   -1209.2488    624.12932    137.66856    10220.609   -11567.527     484.6816    -307.2634 
     270   -677.02494   -1263.5393    586.51432    160.69082    10139.566   -11563.797    455.47083   -415.68751 
     300   -765.03068   -1351.6774    586.64675     169.7238    10039.931   -11561.333    455.57367   -855.83717 
Loop time of 1.04169 on 1 procs (1 MPI x 1 OpenMP) for 300 steps with 649 atoms
