LAMMPS (9 Dec 2014)
  using 1 OpenMP thread(s) per MPI task
  orthogonal box = (-11.356 -11.356 -11.356) to (11.356 11.356 11.356)
  1 by 1 by 1 MPI processor grid
  reading atoms ...
  649 atoms
  scanning bonds ...
  1 = max bonds/atom
  scanning angles ...
  1 = max angles/atom
  reading bonds ...
  432 bonds
  reading angles ...
  216 angles
  2 = max # of 1-2 neighbors
  1 = max # of 1-3 neighbors
  1 = max # of 1-4 neighbors
  2 = max # of special neighbors
  0 = # of size 2 clusters
  0 = # of size 3 clusters
  0 = # of size 4 clusters
  216 = # of frozen angles
PPPM initialization ...
  G vector (1/distance) = 0.265649
  grid = 12 12 12
  stencil order = 5
  estimated absolute RMS force accuracy = 0.0216175
  estimated relative force accuracy = 6.51006e-05
  using double precision FFTs
  3d grid and FFT values/proc = 6859 1728
Memory usage per processor = 7.23959 Mbytes
Step TotEng PotEng KinEng E_vdwl E_coul E_long Temp Press 
       0    474.42204   -105.04744    579.46947    -110.8269    11459.985   -11454.205          450   -1361.1989 
      30    224.31984   -659.04326     883.3631   -115.15789    11001.233   -11545.119     685.9954   -2422.3969 
      60    118.07442   -792.42882    910.50324   -92.494505    10860.851   -11560.786    707.07169   -2749.8148 
      90   -6.7276589   -789.81698    783.08932   -26.298282     10783.86   -11547.379    608.12555   -1366.8251 
     120   -127.08469   -904.75917    777.67448     34.76648    10619.579   -11559.104    603.92054    -684.5411 
     150   -255.63223   -1004.3102    748.67795    48.762859    10499.088   -11552.161    581.40263   -1083.2942 
     180   -372.95804   -1101.7905    728.83249    84.395858    10374.367   -11560.554    565.99119   -829.20632 
     210   -492.47129   -1177.5368    685.06546    134.99802     10247.85   -11560.385    532.00293   -445.89281 
     240    -602.3514   -1260.7108     658.3594    148.68355    10161.373   -11570.767    511.26374   -540.32189 
     270   -700.90737   -1323.2046     622.2972    177.63685    10067.253   -11568.094    483.25883   -374.43985 
     300   -798.24602   -1408.5441    610.29803    209.70653    9943.8316   -11562.082     473.9406   -297.20734 
Loop time of 1.12694 on 1 procs (1 MPI x 1 OpenMP) for 300 steps with 649 atoms
