LAMMPS (9 Oct 2014)
  using 1 OpenMP thread(s) per MPI task
  orthogonal box = (-9.36391 -9.36391 -9.36391) to (9.36391 9.36391 9.36391)
  1 by 1 by 1 MPI processor grid
  reading atoms ...
  649 atoms
  reading velocities ...
  649 velocities
  scanning bonds ...
  1 = max bonds/atom
  scanning angles ...
  1 = max angles/atom
  reading bonds ...
  432 bonds
  reading angles ...
  216 angles
  2 = max # of 1-2 neighbors
  1 = max # of 1-3 neighbors
  1 = max # of 1-4 neighbors
  2 = max # of special neighbors
  0 = # of size 2 clusters
  0 = # of size 3 clusters
  0 = # of size 4 clusters
  216 = # of frozen angles
PPPM initialization ...
  G vector (1/distance) = 0.266541
  grid = 10 10 10
  stencil order = 5
  estimated absolute RMS force accuracy = 0.0275322
  estimated relative force accuracy = 8.29123e-05
  using double precision FFTs
  3d grid and FFT values/proc = 4913 1000
FEP settings ...
  temperature = 300.000000
  tail no
  lj/cut/coul/long sigma 1-1 3-3
  1-1 charge
Memory usage per processor = 7.24501 Mbytes
Step TotEng PotEng E_vdwl E_coul E_long Temp lambda sig13 q1 
       0   -2010.0137   -2385.2237    434.96614    8806.8609   -11627.051    291.37777            0         2.78            0 
WARNING: System is not charge neutral, net charge = 0.1 (../kspace.cpp:291)
      30   -2008.6325   -2368.8191    451.17866    8804.1775   -11624.175    279.71093          0.1        2.835          0.1 
      60   -2004.0973   -2384.7106    453.65579    8790.0298   -11628.396    295.57379          0.2         2.89          0.2 
      90   -2002.2978   -2404.4362    457.51408    8766.7511   -11628.701    312.28956          0.3        2.945          0.3 
     120   -2000.4519   -2389.7386    473.31211     8769.722   -11632.773    302.30933          0.4            3          0.4 
     150   -2001.7383   -2414.8472     447.0282    8773.8783   -11635.754    320.80896          0.5        3.055          0.5 
     180   -2004.1691   -2396.9349    432.58134    8809.9476   -11639.464     305.0111          0.6         3.11          0.6 
     210   -2006.0709   -2404.8514    394.15596    8846.7401   -11645.747    309.68194          0.7        3.165          0.7 
     240   -2008.0633   -2424.2917    406.09211    8820.6141   -11650.998    323.23154          0.8         3.22          0.8 
     270   -2011.7804   -2442.8833    431.39367    8784.5437   -11658.821    334.78255          0.9        3.275          0.9 
     300   -2021.8243    -2438.471    469.91794    8753.9027   -11662.292    323.55631            1         3.33            1 
Loop time of 3.59664 on 1 procs (1 MPI x 1 OpenMP) for 300 steps with 649 atoms
