LAMMPS (12 Apr 2014)
  orthogonal box = (-9.36391 -9.36391 -9.36391) to (9.36391 9.36391 9.36391)
  1 by 1 by 2 MPI processor grid
  reading atoms ...
  649 atoms
  reading velocities ...
  649 velocities
  scanning bonds ...
  1 = max bonds/atom
  scanning angles ...
  1 = max angles/atom
  reading bonds ...
  432 bonds
  reading angles ...
  216 angles
  2 = max # of 1-2 neighbors
  1 = max # of 1-3 neighbors
  1 = max # of 1-4 neighbors
  2 = max # of special neighbors
  0 = # of size 2 clusters
  0 = # of size 3 clusters
  0 = # of size 4 clusters
  216 = # of frozen angles
PPPM initialization ...
  G vector (1/distance) = 0.266541
  grid = 10 10 10
  stencil order = 5
  estimated absolute RMS force accuracy = 0.0275322
  estimated relative force accuracy = 8.29123e-05
  using double precision FFTs
  3d grid and FFT values/proc = 3468 500
FEP settings ...
  temperature = 300.000000
  tail no
  lj/cut/coul/long sigma 1-1 3-3
  1-1 charge
Memory usage per processor = 4.68629 Mbytes
Step TotEng E_vdwl E_coul E_long Temp Volume lambda sig13 q1 
       0   -2000.7075    444.27231    8806.8609   -11627.051    291.37777    6568.4247            0         2.78            0 
      30   -1999.3147     461.2725    8803.3064   -11624.175    279.78432    6566.7434          0.1        2.835          0.1 
      60   -1994.2696    463.90891    8788.8591    -11627.85    295.72852    6565.7775          0.2         2.89          0.2 
      90   -1990.9742    467.09208    8766.3027   -11626.586    312.35045    6566.5085          0.3        2.945          0.3 
     120   -1986.8372    479.73884    8772.5371   -11628.076    302.05763    6572.7603          0.4            3          0.4 
     150   -1984.5847    447.42053    8784.0716   -11627.444    319.45611    6588.8408          0.5        3.055          0.5 
     180   -1981.8328    431.81855    8822.0847   -11626.525    303.47581    6600.2314          0.6         3.11          0.6 
     210    -1976.968    398.62461    8854.3851   -11627.128    308.41616    6597.8732          0.7        3.165          0.7 
     240     -1970.82    423.64334    8812.1717   -11625.734    325.46067    6570.2341          0.8         3.22          0.8 
     270   -1965.6729     466.5647    8756.7831   -11626.064    339.39585    6526.2087          0.9        3.275          0.9 
     300   -1966.6158    510.65526    8718.4736   -11620.613    329.94093    6490.1431            1         3.33            1 
Loop time of 2.79662 on 2 procs for 300 steps with 649 atoms
