LAMMPS (12 Apr 2014)
  orthogonal box = (-11.356 -11.356 -11.356) to (11.356 11.356 11.356)
  1 by 1 by 2 MPI processor grid
  reading atoms ...
  649 atoms
  scanning bonds ...
  1 = max bonds/atom
  scanning angles ...
  1 = max angles/atom
  reading bonds ...
  432 bonds
  reading angles ...
  216 angles
  2 = max # of 1-2 neighbors
  1 = max # of 1-3 neighbors
  1 = max # of 1-4 neighbors
  2 = max # of special neighbors
  0 = # of size 2 clusters
  0 = # of size 3 clusters
  0 = # of size 4 clusters
  216 = # of frozen angles
PPPM initialization ...
  G vector (1/distance) = 0.265649
  grid = 12 12 12
  stencil order = 5
  estimated absolute RMS force accuracy = 0.0216175
  estimated relative force accuracy = 6.51006e-05
  using double precision FFTs
  3d grid and FFT values/proc = 4693 864
Memory usage per processor = 4.69859 Mbytes
Step TotEng PotEng KinEng E_vdwl E_coul E_long Temp Press 
       0    472.48384   -106.98563    579.46947   -112.76509    11459.985   -11454.205          450   -1276.4342 
      30    156.22375   -637.92431    794.14806   -123.33984    11036.992   -11551.576    616.71346   -2665.8426 
      60    68.369435   -731.93472    800.30416   -113.76205    10926.879   -11545.051    621.49412   -3047.6496 
      90   -32.727007   -843.31116    810.58415   -60.958271     10775.53   -11557.882    629.47728   -2604.1704 
     120   -145.15968   -880.97212    735.81243    4.6037946    10666.751   -11552.327    571.41163   -1372.8375 
     150   -255.33179    -1033.488    778.15622    54.142808    10470.154   -11557.785    604.29464   -1181.0941 
     180   -371.21613   -1076.8689    705.65275    117.54012      10373.1   -11567.509    547.99045   -130.96711 
     210   -483.51447   -1190.6606    707.14613    115.51996    10255.782   -11561.963    549.15017   -721.08455 
     240   -586.99037   -1211.1053    624.11491    135.61701    10220.835   -11567.557    484.67041   -293.28468 
     270   -679.11015   -1267.6212    588.51108    158.74025    10137.629    -11563.99    457.02147   -415.16871 
     300   -767.03583   -1353.8072     586.7714    168.08496     10040.25   -11562.142    455.67047   -835.57902 
Loop time of 0.755364 on 2 procs for 300 steps with 649 atoms
