LAMMPS (9 Dec 2014)
  using 1 OpenMP thread(s) per MPI task
  orthogonal box = (-11.356 -11.356 -11.356) to (11.356 11.356 11.356)
  1 by 1 by 1 MPI processor grid
  reading atoms ...
  649 atoms
  scanning bonds ...
  1 = max bonds/atom
  scanning angles ...
  1 = max angles/atom
  reading bonds ...
  432 bonds
  reading angles ...
  216 angles
  2 = max # of 1-2 neighbors
  1 = max # of 1-3 neighbors
  1 = max # of 1-4 neighbors
  2 = max # of special neighbors
  0 = # of size 2 clusters
  0 = # of size 3 clusters
  0 = # of size 4 clusters
  216 = # of frozen angles
PPPM initialization ...
  G vector (1/distance) = 0.265649
  grid = 12 12 12
  stencil order = 5
  estimated absolute RMS force accuracy = 0.0216175
  estimated relative force accuracy = 6.51006e-05
  using double precision FFTs
  3d grid and FFT values/proc = 6859 1728
Memory usage per processor = 7.23959 Mbytes
Step TotEng PotEng KinEng E_vdwl E_coul E_long Temp Press 
       0    467.31979   -112.14969    579.46947   -117.92915    11459.985   -11454.205          450    -1404.019 
      30     217.2234   -666.12455    883.34796   -122.24073    11001.235   -11545.119    685.98364    -2464.529 
      60    110.98774   -799.51202    910.49976   -99.582386    10860.857   -11560.787    707.06899   -2791.8673 
      90   -13.823476   -796.92868     783.1052   -33.415365    10783.863   -11547.377    608.13788   -1409.2489 
     120   -134.16481    -911.8123    777.64749    27.680559    10619.593   -11559.086    603.89957   -726.16019 
     150   -262.67689   -1011.3543    748.67742    41.686797    10499.144   -11552.185    581.40222   -1124.6844 
     180   -379.99272    -1108.665    728.67224    77.275351    10374.772   -11560.712    565.86675   -868.25045 
     210    -499.4748   -1184.8521    685.37731    127.75067    10247.486   -11560.089     532.2451   -491.55171 
     240    -609.4691   -1269.1817    659.71256    141.97538    10159.654   -11570.811    512.31457   -583.08824 
     270   -708.25281   -1335.5992    627.34636    171.28448    10061.106   -11567.989    487.17987   -446.14038 
     300   -805.73137   -1414.2774    608.54602    203.78175    9942.7477   -11560.807    472.58004   -313.11527 
Loop time of 1.06822 on 1 procs (1 MPI x 1 OpenMP) for 300 steps with 649 atoms
