LAMMPS (9 Oct 2014)
  using 1 OpenMP thread(s) per MPI task
  orthogonal box = (-11.356 -11.356 -11.356) to (11.356 11.356 11.356)
  1 by 1 by 1 MPI processor grid
  reading atoms ...
  649 atoms
  scanning bonds ...
  1 = max bonds/atom
  scanning angles ...
  1 = max angles/atom
  reading bonds ...
  432 bonds
  reading angles ...
  216 angles
  2 = max # of 1-2 neighbors
  1 = max # of 1-3 neighbors
  1 = max # of 1-4 neighbors
  2 = max # of special neighbors
  0 = # of size 2 clusters
  0 = # of size 3 clusters
  0 = # of size 4 clusters
  216 = # of frozen angles
PPPM initialization ...
  G vector (1/distance) = 0.265649
  grid = 12 12 12
  stencil order = 5
  estimated absolute RMS force accuracy = 0.0216175
  estimated relative force accuracy = 6.51006e-05
  using double precision FFTs
  3d grid and FFT values/proc = 6859 1728
Memory usage per processor = 7.23959 Mbytes
Step TotEng PotEng KinEng E_vdwl E_coul E_long Temp Press 
       0    467.31979   -112.14969    579.46947   -117.92915    11459.985   -11454.205          450   -1337.7886 
      30    151.06132   -643.07496    794.13628   -128.48891    11036.991   -11551.577    616.70432   -2726.5749 
      60    63.206164   -737.09667    800.30284   -118.91486    10926.869   -11545.051    621.49309   -3108.4553 
      90   -37.883091   -848.46236    810.57927   -66.122531    10775.543   -11557.883    629.47349    -2664.915 
     120   -150.31771   -886.12667    735.80896  -0.55527996    10666.755   -11552.326    571.40893   -1433.5195 
     150   -260.49877   -1038.7507     778.2519    49.023028    10470.013   -11557.787    604.36895   -1242.1917 
     180    -376.3829   -1082.0777    705.69484    112.41508    10373.002   -11567.495    548.02313   -191.71492 
     210   -488.66238     -1195.82    707.15758    110.36614     10255.74   -11561.926    549.15906   -782.01692 
     240   -592.21561   -1216.3348    624.11923     130.3616    10220.785   -11567.481    484.67377     -356.935 
     270   -684.37957   -1272.9189    588.53931    153.77436    10137.202   -11563.895    457.04338   -473.89362 
     300   -772.23423   -1357.7977    585.56345    162.90922    10041.194   -11561.901    454.73241   -886.26954 
Loop time of 1.02321 on 1 procs (1 MPI x 1 OpenMP) for 300 steps with 649 atoms
