LAMMPS (20 Jan 2015)
  using 1 OpenMP thread(s) per MPI task
  orthogonal box = (-11.356 -11.356 -11.356) to (11.356 11.356 11.356)
  1 by 1 by 1 MPI processor grid
  reading atoms ...
  649 atoms
  scanning bonds ...
  1 = max bonds/atom
  scanning angles ...
  1 = max angles/atom
  reading bonds ...
  432 bonds
  reading angles ...
  216 angles
  2 = max # of 1-2 neighbors
  1 = max # of 1-3 neighbors
  1 = max # of 1-4 neighbors
  2 = max # of special neighbors
  0 = # of size 2 clusters
  0 = # of size 3 clusters
  0 = # of size 4 clusters
  216 = # of frozen angles
PPPM initialization ...
  G vector (1/distance) = 0.265649
  grid = 12 12 12
  stencil order = 5
  estimated absolute RMS force accuracy = 0.0216175
  estimated relative force accuracy = 6.51006e-05
  using double precision FFTs
  3d grid and FFT values/proc = 6859 1728
Memory usage per processor = 7.23959 Mbytes
Step TotEng PotEng KinEng E_vdwl E_coul E_long Temp Press 
       0    467.26484   -112.20463    579.46947   -117.98409    11459.985   -11454.205          450   -1403.7349 
      30    217.16629   -666.19606    883.36235   -122.31026    11001.233   -11545.118    685.99482   -2464.9889 
      60    110.92587   -799.57082    910.49669   -99.643926     10860.86   -11560.787     707.0666   -2792.3463 
      90   -13.884559   -796.96356      783.079   -33.465903    10783.879   -11547.376    608.11754   -1409.3372 
     120   -134.23533   -911.94787    777.71253    27.604544    10619.549   -11559.101    603.95009   -727.56987 
     150   -262.76982     -1011.39    748.62016    41.623839    10499.167   -11552.181    581.35775   -1125.2339 
     180   -380.08938   -1108.9238    728.83442    77.167618    10374.384   -11560.475    565.99269   -874.06678 
     210   -499.58404    -1183.993    684.40901    127.84784    10248.674   -11560.515    531.49314   -485.35741 
     240   -609.45928   -1267.2291    657.76985    141.29689     10162.18   -11570.706    510.80591   -581.49168 
     270   -708.15865   -1331.6158     623.4571    171.30171    10065.194   -11568.111    484.15958   -417.86299 
     300   -805.69836   -1417.2616    611.56325    203.11722    9941.6518   -11562.031    474.92314     -333.963 
Loop time of 1.06384 on 1 procs (1 MPI x 1 OpenMP) for 300 steps with 649 atoms
