LAMMPS (12 Apr 2014)
  orthogonal box = (-11.356 -11.356 -11.356) to (11.356 11.356 11.356)
  1 by 1 by 2 MPI processor grid
  reading atoms ...
  649 atoms
  scanning bonds ...
  1 = max bonds/atom
  scanning angles ...
  1 = max angles/atom
  reading bonds ...
  432 bonds
  reading angles ...
  216 angles
  2 = max # of 1-2 neighbors
  1 = max # of 1-3 neighbors
  1 = max # of 1-4 neighbors
  2 = max # of special neighbors
  0 = # of size 2 clusters
  0 = # of size 3 clusters
  0 = # of size 4 clusters
  216 = # of frozen angles
PPPM initialization ...
  G vector (1/distance) = 0.265649
  grid = 12 12 12
  stencil order = 5
  estimated absolute RMS force accuracy = 0.0216175
  estimated relative force accuracy = 6.51006e-05
  using double precision FFTs
  3d grid and FFT values/proc = 4693 864
Memory usage per processor = 4.69859 Mbytes
Step TotEng PotEng KinEng E_vdwl E_coul E_long Temp Press 
       0    472.50593   -106.96354    579.46947     -112.743    11459.985   -11454.205          450   -1276.7589 
      30    156.24697   -637.89286    794.13983   -123.30739    11036.991   -11551.577    616.70707    -2665.744 
      60    68.393546   -731.90899    800.30254   -113.73207    10926.874   -11545.051    621.49287   -3047.5659 
      90   -32.699378   -843.27973    810.58035   -60.936425    10775.539   -11557.883    629.47433   -2604.1156 
     120   -145.13275   -880.94349    735.81074    4.6287386    10666.754   -11552.326    571.41031   -1372.7495 
     150   -255.31214   -1033.5314    778.21922    54.193637    10470.061   -11557.786    604.34357   -1181.3273 
     180    -371.1939   -1076.8699    705.67603    117.58864    10373.041   -11567.499    548.00853   -130.84131 
     210   -483.48175   -1190.6281    707.14634    115.55211    10255.759   -11561.939    549.15033   -721.01646 
     240   -587.01059   -1211.1386    624.12801    135.57906    10220.788   -11567.506    484.68059   -295.41449 
     270   -679.16281   -1267.6623    588.49946     158.9039     10137.35   -11563.916    457.01244   -413.44281 
     300   -767.04388    -1353.038     585.9941    168.12001    10040.826   -11561.984    455.06684    -828.9382 
Loop time of 0.828182 on 2 procs for 300 steps with 649 atoms
