LAMMPS (25 Sep 2015)
  orthogonal box = (-11.356 -11.356 -11.356) to (11.356 11.356 11.356)
  1 by 1 by 1 MPI processor grid
  reading atoms ...
  649 atoms
  scanning bonds ...
  1 = max bonds/atom
  scanning angles ...
  1 = max angles/atom
  reading bonds ...
  432 bonds
  reading angles ...
  216 angles
  2 = max # of 1-2 neighbors
  1 = max # of 1-3 neighbors
  1 = max # of 1-4 neighbors
  2 = max # of special neighbors
  0 = # of size 2 clusters
  0 = # of size 3 clusters
  0 = # of size 4 clusters
  216 = # of frozen angles
PPPM initialization ...
  G vector (1/distance) = 0.265649
  grid = 12 12 12
  stencil order = 5
  estimated absolute RMS force accuracy = 0.0216175
  estimated relative force accuracy = 6.51006e-05
  using double precision FFTs
  3d grid and FFT values/proc = 6859 1728
Neighbor list info ...
  3 neighbor list requests
  update every 1 steps, delay 10 steps, check yes
  max neighbors/atom: 2000, page size: 100000
  master list distance cutoff = 12
  ghost atom cutoff = 12
  binsize = 6 -> bins = 4 4 4
Memory usage per processor = 7.23959 Mbytes
Step TotEng PotEng KinEng E_vdwl E_coul E_long Temp Press 
       0    467.28912   -112.18035    579.46947   -117.95981    11459.985   -11454.205          450   -1404.0343 
      30    217.19206   -666.15991    883.35197   -122.27549    11001.235   -11545.119    685.98676    -2464.786 
      60    110.95579   -799.54092    910.49671   -99.614203     10860.86   -11560.787    707.06661   -2792.1223 
      90   -13.855902   -796.95198    783.09607   -33.444685    10783.869   -11547.376     608.1308   -1409.4446 
     120   -134.19875   -911.86732    777.66856    27.645455    10619.578   -11559.091    603.91594   -726.73359 
     150   -262.71618   -1011.3691    748.65295    41.655793    10499.163   -11552.188    581.38322   -1124.9122 
     180   -380.02923   -1108.7408    728.71155    77.219245    10374.654   -11560.614    565.89727   -870.45036 
     210   -499.51748   -1184.6014    685.08394    127.79822    10247.875   -11560.275    532.01728   -489.40447 
     240   -609.49576   -1268.4148    658.91902    141.70699    10160.637   -11570.759    511.69832   -582.11329 
     270   -708.25834   -1333.7654    625.50707    171.32892    10063.031   -11568.125    485.75153   -431.55846 
     300   -805.95084   -1416.0783    610.12749    203.71954    9941.7047   -11561.503    473.80817   -319.93419 
Loop time of 1.13806 on 1 procs for 300 steps with 649 atoms

98.5% CPU use with 1 MPI tasks x 1 OpenMP threads
Total wall time: 0:00:01
