LAMMPS (9 Oct 2014)
  using 1 OpenMP thread(s) per MPI task
  orthogonal box = (-11.356 -11.356 -11.356) to (11.356 11.356 11.356)
  1 by 1 by 1 MPI processor grid
  reading atoms ...
  649 atoms
  scanning bonds ...
  1 = max bonds/atom
  scanning angles ...
  1 = max angles/atom
  reading bonds ...
  432 bonds
  reading angles ...
  216 angles
  2 = max # of 1-2 neighbors
  1 = max # of 1-3 neighbors
  1 = max # of 1-4 neighbors
  2 = max # of special neighbors
  0 = # of size 2 clusters
  0 = # of size 3 clusters
  0 = # of size 4 clusters
  216 = # of frozen angles
PPPM initialization ...
  G vector (1/distance) = 0.265649
  grid = 12 12 12
  stencil order = 5
  estimated absolute RMS force accuracy = 0.0216175
  estimated relative force accuracy = 6.51006e-05
  using double precision FFTs
  3d grid and FFT values/proc = 6859 1728
Memory usage per processor = 7.23959 Mbytes
Step TotEng PotEng KinEng E_vdwl E_coul E_long Temp Press 
       0    467.28693   -112.18254    579.46947     -117.962    11459.985   -11454.205          450   -1337.8296 
      30    151.02797   -643.11186    794.13983   -128.52639    11036.991   -11551.577    616.70707   -2726.8147 
      60    63.174546   -737.12799    800.30254   -118.95107    10926.874   -11545.051    621.49287   -3108.6366 
      90   -37.918378   -848.49873    810.58035   -66.155425    10775.539   -11557.883    629.47433   -2665.1864 
     120   -150.35175   -886.16249    735.81074  -0.59026157    10666.754   -11552.326    571.41031   -1433.8202 
     150   -260.53114   -1038.7504    778.21922    48.974637    10470.061   -11557.786    604.34357    -1242.398 
     180    -376.4129   -1082.0889    705.67603    112.36964    10373.041   -11567.499    548.00853   -191.91205 
     210   -488.70075   -1195.8471    707.14634    110.33311    10255.759   -11561.939    549.15033    -782.0872 
     240   -592.22959   -1216.3576    624.12801    130.36006    10220.788   -11567.506    484.68059   -356.48522 
     270   -684.38181   -1272.8813    588.49946     153.6849     10137.35   -11563.916    457.01244   -474.51352 
     300   -772.26287    -1358.257     585.9941    162.90101    10040.826   -11561.984    455.06684   -890.00887 
Loop time of 1.04057 on 1 procs (1 MPI x 1 OpenMP) for 300 steps with 649 atoms
