LAMMPS (9 Oct 2014)
WARNING: OMP_NUM_THREADS environment is not set. (../comm.cpp:88)
  using 1 OpenMP thread(s) per MPI task
ERROR: Expected integer parameter in input script or data file (../fix_omp.cpp:82)
