LAMMPS (12 Apr 2014)
  orthogonal box = (-11.356 -11.356 -11.356) to (11.356 11.356 11.356)
  1 by 1 by 2 MPI processor grid
  reading atoms ...
  649 atoms
  scanning bonds ...
  1 = max bonds/atom
  scanning angles ...
  1 = max angles/atom
  reading bonds ...
  432 bonds
  reading angles ...
  216 angles
  2 = max # of 1-2 neighbors
  1 = max # of 1-3 neighbors
  1 = max # of 1-4 neighbors
  2 = max # of special neighbors
  0 = # of size 2 clusters
  0 = # of size 3 clusters
  0 = # of size 4 clusters
  216 = # of frozen angles
PPPM initialization ...
  G vector (1/distance) = 0.283959
  grid = 15 15 15
  stencil order = 5
  estimated absolute RMS force accuracy = 0.0120694
  estimated relative force accuracy = 3.63466e-05
  using double precision FFTs
  3d grid and FFT values/proc = 6776 1800
Memory usage per processor = 5.01688 Mbytes
Step TotEng PotEng KinEng E_vdwl E_coul E_long Temp Press 
       0    596.02269    16.553215    579.46947    -119.7297     18826.16   -18689.877          450      6855.68 
      30    300.68701   -631.53795    932.22496    -133.3711    18357.212   -18855.379    723.94017   -3202.5959 
      60    202.57808   -647.49995    850.07803   -125.20304    18344.781   -18867.078    660.14713   -2887.7425 
      90    93.294015   -707.27726    800.57128   -101.77173    18258.348   -18863.853    621.70156   -2822.9554 
     120   -14.894586   -745.63224    730.73765   -73.964513    18204.266   -18875.934    567.47069   -2237.4254 
     150   -122.47785   -857.91604    735.43819   -24.978213    18032.972    -18865.91      571.121   -1992.4173 
     180   -230.99972   -914.19506    683.19534    25.309384    17936.168   -18875.673    530.55064   -1210.5573 
     210     -329.952   -979.07328    649.12128    55.802422    17850.236   -18885.112    504.08967   -996.19639 
     240   -423.64402   -1059.2253    635.58129    71.309788    17756.935    -18887.47    493.57489   -1098.3436 
     270   -512.94638   -1097.6512    584.70478    82.354237    17713.247   -18893.252    454.06559   -1000.6881 
     300   -592.10053   -1158.6198    566.51925    120.81715    17610.712   -18890.149    439.94322   -753.50703 
Loop time of 1.23237 on 2 procs for 300 steps with 649 atoms
