LAMMPS (12 Apr 2014)
  orthogonal box = (-11.356 -11.356 -11.356) to (11.356 11.356 11.356)
  1 by 1 by 2 MPI processor grid
  reading atoms ...
  649 atoms
  scanning bonds ...
  1 = max bonds/atom
  scanning angles ...
  1 = max angles/atom
  reading bonds ...
  432 bonds
  reading angles ...
  216 angles
  2 = max # of 1-2 neighbors
  1 = max # of 1-3 neighbors
  1 = max # of 1-4 neighbors
  2 = max # of special neighbors
  0 = # of size 2 clusters
  0 = # of size 3 clusters
  0 = # of size 4 clusters
  216 = # of frozen angles
PPPM initialization ...
  G vector (1/distance) = 0.283959
  grid = 15 15 15
  stencil order = 5
  estimated absolute RMS force accuracy = 0.0120694
  estimated relative force accuracy = 3.63466e-05
  using double precision FFTs
  3d grid and FFT values/proc = 6776 1800
Memory usage per processor = 5.1749 Mbytes
Step TotEng PotEng KinEng E_vdwl E_coul E_long Temp Press 
       0    595.96554    16.496066    579.46947   -119.78685     18826.16   -18689.877          450    6856.8022 
      30    300.62869   -631.61843    932.24712   -133.43532    18357.192   -18855.375    723.95739   -3201.7451 
      60    202.51037    -647.5949    850.10527   -125.27474    18344.759   -18867.079    660.16829   -2887.3084 
      90    93.227017   -707.32264    800.54966   -101.80844    18258.358   -18863.872    621.68477   -2821.5593 
     120   -14.961985   -745.81567    730.85368   -74.076861    18204.173   -18875.912     567.5608   -2238.3614 
     150   -122.54942   -857.99135    735.44193   -25.027086    18032.942   -18865.907     571.1239   -1991.4066 
     180     -231.074   -914.03361    682.95961     25.37558    17936.301   -18875.711    530.36759   -1205.3251 
     210   -330.12612    -979.4992    649.37308    55.611004    17850.402   -18885.512    504.28521   -995.87504 
     240   -423.88669   -1060.3122    636.42555    70.823097    17755.998   -18887.134    494.23052    -1109.423 
     270   -513.09197   -1094.8794    581.78743    81.821684    17715.315   -18892.016    451.80006   -1008.6691 
     300   -591.65752   -1166.1534    574.49588    120.38638    17602.688   -18889.228    446.13765   -838.43367 
Loop time of 1.18123 on 2 procs for 300 steps with 649 atoms
