LAMMPS (11 Nov 2013)
# created by fftool

units real
boundary p p p

atom_style full
bond_style harmonic
angle_style harmonic
special_bonds lj/coul 0.0 0.0 0.5

read_data data.0.lmp
  1 = max bonds/atom
  6 = max angles/atom
  orthogonal box = (-11.1235 -11.1235 -11.1235) to (11.1235 11.1235 11.1235)
  2 by 2 by 2 MPI processor grid
  1085 atoms
  1085 velocities
  724 bonds
  366 angles
  4 = max # of 1-2 neighbors
  3 = max # of 1-3 neighbors
  3 = max # of 1-4 neighbors
  4 = max # of special neighbors
# read_restart restart.*.lmp
# reset_timestep 0

pair_style hybrid lj/cut/coul/long 10.0 10.0 lj/cut/coul/long/soft 10.0 10.0
pair_modify tail no
kspace_style pppm 1.0e-4

pair_coeff    1    1  lj/cut/coul/long    0.0660   3.5000  # C4H C4H
pair_coeff    1    2  lj/cut/coul/long    0.0445   2.9580  # C4H H
pair_coeff    2    2  lj/cut/coul/long    0.0300   2.5000  # H H
pair_coeff    3    3  lj/cut/coul/long    0.0000   1.0000  # Hw Hw
pair_coeff    3    4  lj/cut/coul/long    0.0000   1.0000  # Hw Ow
pair_coeff    4    4  lj/cut/coul/long    0.1554   3.1655  # Ow Ow

pair_coeff    1    3  lj/cut/coul/long/soft    0.0000   1.0000  0.0  # C4H Hw
pair_coeff    1    4  lj/cut/coul/long/soft    0.1013   3.3286  0.0  # C4H Ow
pair_coeff    2    3  lj/cut/coul/long/soft    0.0000   1.0000  0.0  # H Hw
pair_coeff    2    4  lj/cut/coul/long/soft    0.0683   2.8131  0.0  # H Ow

variable nsteps equal 5000000
variable nprint equal ${nsteps}/500
variable nprint equal 5000000/500
variable ndump equal ${nsteps}/100
variable ndump equal 5000000/100
# variable nrestart equal ${nsteps}/10

variable temp equal 300.0
variable press equal 1.0

neighbor 2.0 bin

timestep 2.0

# velocity all create ${temp} 12345

thermo_style multi
thermo ${nprint}
thermo 10000

fix fSHAKE all shake 0.0001 20 ${nprint} b 2 a 2
fix fSHAKE all shake 0.0001 20 10000 b 2 a 2
  0 = # of size 2 clusters
  0 = # of size 3 clusters
  0 = # of size 4 clusters
  360 = # of frozen angles

fix fNPT all npt temp ${temp} ${temp} 100 iso ${press} ${press} 500
fix fNPT all npt temp 300 ${temp} 100 iso ${press} ${press} 500
fix fNPT all npt temp 300 300 100 iso ${press} ${press} 500
fix fNPT all npt temp 300 300 100 iso 1 ${press} 500
fix fNPT all npt temp 300 300 100 iso 1 1 500

run 100000
PPPM initialization ...
  G vector (1/distance) = 0.267394
  grid = 12 12 12
  stencil order = 5
  estimated absolute RMS force accuracy = 0.0261954
  estimated relative force accuracy = 7.88866e-05
  using double precision FFTs
  3d grid and FFT values/proc = 2197 288
SHAKE stats (type/ave/delta) on step 0
  2 0.999982 8.74345e-06
  2 109.47 0.000894552
Memory usage per processor = 6.45106 Mbytes
---------------- Step        0 ----- CPU =      0.0000 (sec) ----------------
TotEng   =     -3342.1460 KinEng   =       656.2542 Temp     =       304.0880 
PotEng   =     -3998.4003 E_bond   =         3.7430 E_angle  =         0.9881 
E_dihed  =         0.0000 E_impro  =         0.0000 E_vdwl   =       791.1284 
E_coul   =     14649.8895 E_long   =    -19444.1493 Press    =       282.0372 
Volume   =     11010.6931 
SHAKE stats (type/ave/delta) on step 10000
  2 1 7.20105e-06
  2 109.47 0.00059934
---------------- Step    10000 ----- CPU =     26.5958 (sec) ----------------
TotEng   =     -3322.9307 KinEng   =       664.2566 Temp     =       307.7960 
PotEng   =     -3987.1874 E_bond   =         2.4601 E_angle  =         0.7998 
E_dihed  =         0.0000 E_impro  =         0.0000 E_vdwl   =       784.2900 
E_coul   =     14668.7832 E_long   =    -19443.5203 Press    =       234.5828 
Volume   =     10854.2546 
SHAKE stats (type/ave/delta) on step 20000
  2 0.999924 7.34152e-06
  2 109.47 0.000591937
---------------- Step    20000 ----- CPU =     53.1228 (sec) ----------------
TotEng   =     -3336.8670 KinEng   =       652.7564 Temp     =       302.4672 
PotEng   =     -3989.6235 E_bond   =         2.3157 E_angle  =         0.5242 
E_dihed  =         0.0000 E_impro  =         0.0000 E_vdwl   =       760.4377 
E_coul   =     14690.7714 E_long   =    -19443.6724 Press    =      -324.6833 
Volume   =     10918.7681 
SHAKE stats (type/ave/delta) on step 30000
  2 1.00003 5.92473e-06
  2 109.47 0.000469137
---------------- Step    30000 ----- CPU =     79.1537 (sec) ----------------
TotEng   =     -3331.1930 KinEng   =       643.3664 Temp     =       298.1162 
PotEng   =     -3974.5594 E_bond   =         3.3008 E_angle  =         0.4518 
E_dihed  =         0.0000 E_impro  =         0.0000 E_vdwl   =       746.3499 
E_coul   =     14721.3059 E_long   =    -19445.9678 Press    =      -431.8754 
Volume   =     10864.7666 
SHAKE stats (type/ave/delta) on step 40000
  2 1.00006 4.06413e-06
  2 109.47 0.000360924
---------------- Step    40000 ----- CPU =    105.1401 (sec) ----------------
TotEng   =     -3343.5292 KinEng   =       663.2779 Temp     =       307.3425 
PotEng   =     -4006.8071 E_bond   =         2.7073 E_angle  =         0.3425 
E_dihed  =         0.0000 E_impro  =         0.0000 E_vdwl   =       791.5591 
E_coul   =     14641.9163 E_long   =    -19443.3323 Press    =       -86.6186 
Volume   =     11123.4778 
SHAKE stats (type/ave/delta) on step 50000
  2 1.00004 1.15552e-05
  2 109.47 0.000816405
---------------- Step    50000 ----- CPU =    131.3223 (sec) ----------------
TotEng   =     -3322.2601 KinEng   =       646.7799 Temp     =       299.6979 
PotEng   =     -3969.0401 E_bond   =         3.0332 E_angle  =         1.1996 
E_dihed  =         0.0000 E_impro  =         0.0000 E_vdwl   =       781.6799 
E_coul   =     14687.7631 E_long   =    -19442.7158 Press    =       -29.0894 
Volume   =     11154.1260 
SHAKE stats (type/ave/delta) on step 60000
  2 0.999914 5.54907e-06
  2 109.47 0.00044167
---------------- Step    60000 ----- CPU =    156.9541 (sec) ----------------
TotEng   =     -3360.2941 KinEng   =       622.5774 Temp     =       288.4832 
PotEng   =     -3982.8715 E_bond   =         2.3121 E_angle  =         1.2976 
E_dihed  =         0.0000 E_impro  =         0.0000 E_vdwl   =       791.0435 
E_coul   =     14666.1708 E_long   =    -19443.6955 Press    =       489.9914 
Volume   =     10837.0315 
SHAKE stats (type/ave/delta) on step 70000
  2 1.00006 4.8374e-06
  2 109.47 0.000494673
---------------- Step    70000 ----- CPU =    183.1694 (sec) ----------------
TotEng   =     -3301.0043 KinEng   =       656.6795 Temp     =       304.2850 
PotEng   =     -3957.6838 E_bond   =         1.9103 E_angle  =         1.2693 
E_dihed  =         0.0000 E_impro  =         0.0000 E_vdwl   =       754.7681 
E_coul   =     14729.2688 E_long   =    -19444.9004 Press    =       185.5617 
Volume   =     10674.6806 
SHAKE stats (type/ave/delta) on step 80000
  2 1.00001 5.31932e-06
  2 109.47 0.000423651
---------------- Step    80000 ----- CPU =    208.8234 (sec) ----------------
TotEng   =     -3295.0083 KinEng   =       664.7719 Temp     =       308.0348 
PotEng   =     -3959.7803 E_bond   =         2.1839 E_angle  =         0.7596 
E_dihed  =         0.0000 E_impro  =         0.0000 E_vdwl   =       741.8292 
E_coul   =     14737.6059 E_long   =    -19442.1588 Press    =      -166.3538 
Volume   =     10901.7456 
SHAKE stats (type/ave/delta) on step 90000
  2 0.999854 8.10627e-06
  2 109.47 0.000628198
---------------- Step    90000 ----- CPU =    234.6743 (sec) ----------------
TotEng   =     -3385.1505 KinEng   =       642.0026 Temp     =       297.4842 
PotEng   =     -4027.1532 E_bond   =         2.5118 E_angle  =         1.1221 
E_dihed  =         0.0000 E_impro  =         0.0000 E_vdwl   =       756.7902 
E_coul   =     14656.6242 E_long   =    -19444.2014 Press    =      -344.2908 
Volume   =     10882.7044 
SHAKE stats (type/ave/delta) on step 100000
  2 1.00008 4.32068e-06
  2 109.47 0.000586201
---------------- Step   100000 ----- CPU =    261.4566 (sec) ----------------
TotEng   =     -3294.7887 KinEng   =       659.2687 Temp     =       305.4848 
PotEng   =     -3954.0574 E_bond   =         1.0618 E_angle  =         1.3257 
E_dihed  =         0.0000 E_impro  =         0.0000 E_vdwl   =       811.9720 
E_coul   =     14674.1135 E_long   =    -19442.5305 Press    =      1213.6760 
Volume   =     10961.0119 
Loop time of 261.457 on 8 procs for 100000 steps with 1085 atoms

Pair  time (%) = 134.52 (51.4502)
Bond  time (%) = 0.0639773 (0.0244696)
Kspce time (%) = 46.9627 (17.962)
Neigh time (%) = 19.4573 (7.44188)
Comm  time (%) = 26.117 (9.98905)
Outpt time (%) = 0.000588894 (0.000225236)
Other time (%) = 34.335 (13.1322)

FFT time (% of Kspce) = 5.73213 (12.2057)
FFT Gflps 3d (1d only) = 4.49458 52.8599

Nlocal:    135.625 ave 144 max 129 min
Histogram: 3 0 0 0 1 0 2 1 0 1
Nghost:    4153.62 ave 4191 max 4120 min
Histogram: 3 0 0 0 1 0 1 1 1 1
Neighs:    48640.1 ave 54381 max 43305 min
Histogram: 1 0 1 1 3 0 0 0 1 1

Total # of neighbors = 389121
Ave neighs/atom = 358.637
Ave special neighs/atom = 2.00922
Neighbor list builds = 8248
Dangerous builds = 1316

reset_timestep 0

variable lambda equal ramp(0.0,1.0)
variable lam13 equal v_lambda
variable lam14 equal v_lambda
variable lam23 equal v_lambda
variable lam24 equal v_lambda

fix fADAPT all adapt 250000   pair lj/cut/coul/long/soft lambda 1 3 v_lam13   pair lj/cut/coul/long/soft lambda 1 4 v_lam14   pair lj/cut/coul/long/soft lambda 2 3 v_lam23   pair lj/cut/coul/long/soft lambda 2 4 v_lam24   after yes

variable dlambda equal 0.05
variable dlam13 equal v_dlambda
variable dlam14 equal v_dlambda
variable dlam23 equal v_dlambda
variable dlam24 equal v_dlambda

compute cFEP all fep ${temp}   pair lj/cut/coul/long/soft lambda 1 3 v_dlam13   pair lj/cut/coul/long/soft lambda 1 4 v_dlam14   pair lj/cut/coul/long/soft lambda 2 3 v_dlam23   pair lj/cut/coul/long/soft lambda 2 4 v_dlam24
compute cFEP all fep 300   pair lj/cut/coul/long/soft lambda 1 3 v_dlam13   pair lj/cut/coul/long/soft lambda 1 4 v_dlam14   pair lj/cut/coul/long/soft lambda 2 3 v_dlam23   pair lj/cut/coul/long/soft lambda 2 4 v_dlam24

fix fFEP all ave/time 25 8000 250000 c_cFEP[1] c_cFEP[2] file fep01.lmp

# compute cRDF all rdf 100 1 1
# fix fRDF all ave/time 20 100 ${nsteps} c_cRDF file rdf.lammps mode vector

compute cMSD all msd
fix fMSD all ave/time 1 1 ${ndump} c_cMSD[1] c_cMSD[2] c_cMSD[3] c_cMSD[4] file msd.lammps
fix fMSD all ave/time 1 1 50000 c_cMSD[1] c_cMSD[2] c_cMSD[3] c_cMSD[4] file msd.lammps

dump dCONF all custom ${ndump} dump.lammpstrj id mol type element x y z ix iy iz
dump dCONF all custom 50000 dump.lammpstrj id mol type element x y z ix iy iz
dump_modify dCONF element C H H O

# restart ${nrestart} restart.*.lmp

run ${nsteps}
run 5000000
PPPM initialization ...
  G vector (1/distance) = 0.267521
  grid = 12 12 12
  stencil order = 5
  estimated absolute RMS force accuracy = 0.0260772
  estimated relative force accuracy = 7.85308e-05
  using double precision FFTs
  3d grid and FFT values/proc = 2197 288
FEP settings ...
  temperature = 300.000000
  tail no
  lj/cut/coul/long/soft lambda 1-1 3-3
  lj/cut/coul/long/soft lambda 1-1 4-4
  lj/cut/coul/long/soft lambda 2-2 3-3
  lj/cut/coul/long/soft lambda 2-2 4-4
SHAKE stats (type/ave/delta) on step 0
  2 1.00008 4.32068e-06
  2 109.47 0.000586201
Memory usage per processor = 7.61221 Mbytes
---------------- Step        0 ----- CPU =      0.0000 (sec) ----------------
TotEng   =     -3294.7873 KinEng   =       659.2687 Temp     =       305.4848 
PotEng   =     -3954.0560 E_bond   =         1.0618 E_angle  =         1.3257 
E_dihed  =         0.0000 E_impro  =         0.0000 E_vdwl   =       811.9720 
E_coul   =     14683.3184 E_long   =    -19451.7340 Press    =      1212.2577 
Volume   =     10961.0119 
SHAKE stats (type/ave/delta) on step 10000
  2 1.00005 4.64437e-06
  2 109.47 0.000379534
---------------- Step    10000 ----- CPU =     25.7184 (sec) ----------------
TotEng   =     -3373.7292 KinEng   =       660.7232 Temp     =       306.1587 
PotEng   =     -4034.4524 E_bond   =         2.2323 E_angle  =         1.2723 
E_dihed  =         0.0000 E_impro  =         0.0000 E_vdwl   =       791.9595 
E_coul   =     14624.3332 E_long   =    -19454.2496 Press    =        -7.2711 
Volume   =     10868.4035 
SHAKE stats (type/ave/delta) on step 20000
  2 1.00009 5.70443e-06
  2 109.47 0.00046089
---------------- Step    20000 ----- CPU =     51.8301 (sec) ----------------
TotEng   =     -3323.0919 KinEng   =       642.5824 Temp     =       297.7529 
PotEng   =     -3965.6743 E_bond   =         2.8669 E_angle  =         1.8658 
E_dihed  =         0.0000 E_impro  =         0.0000 E_vdwl   =       671.9257 
E_coul   =     14812.7078 E_long   =    -19455.0406 Press    =     -2295.0194 
Volume   =     11231.5470 
SHAKE stats (type/ave/delta) on step 30000
  2 1.00004 5.81256e-06
  2 109.47 0.000388345
---------------- Step    30000 ----- CPU =     77.8459 (sec) ----------------
TotEng   =     -3276.7236 KinEng   =       682.6102 Temp     =       316.3005 
PotEng   =     -3959.3338 E_bond   =         2.5998 E_angle  =         1.0537 
E_dihed  =         0.0000 E_impro  =         0.0000 E_vdwl   =       731.8753 
E_coul   =     14759.9936 E_long   =    -19454.8562 Press    =      -271.0453 
Volume   =     10963.9414 
SHAKE stats (type/ave/delta) on step 40000
  2 1 4.12566e-06
  2 109.47 0.000385977
---------------- Step    40000 ----- CPU =    103.3376 (sec) ----------------
TotEng   =     -3291.9411 KinEng   =       674.6496 Temp     =       312.6118 
PotEng   =     -3966.5907 E_bond   =         3.1057 E_angle  =         1.1563 
E_dihed  =         0.0000 E_impro  =         0.0000 E_vdwl   =       767.6847 
E_coul   =     14716.8130 E_long   =    -19455.3504 Press    =       241.5584 
Volume   =     10812.4623 
SHAKE stats (type/ave/delta) on step 50000
  2 1.00001 1.92343e-05
  2 109.47 0.00145554
---------------- Step    50000 ----- CPU =    129.1698 (sec) ----------------
TotEng   =     -3338.0151 KinEng   =       663.8347 Temp     =       307.6005 
PotEng   =     -4001.8499 E_bond   =         2.0594 E_angle  =         1.5880 
E_dihed  =         0.0000 E_impro  =         0.0000 E_vdwl   =       773.4176 
E_coul   =     14676.1753 E_long   =    -19455.0901 Press    =      -520.1411 
Volume   =     11147.9803 
SHAKE stats (type/ave/delta) on step 60000
  2 1.00002 6.0245e-06
  2 109.47 0.00066818
---------------- Step    60000 ----- CPU =    156.8085 (sec) ----------------
TotEng   =     -3411.8677 KinEng   =       627.9598 Temp     =       290.9772 
PotEng   =     -4039.8275 E_bond   =         0.6676 E_angle  =         0.8608 
E_dihed  =         0.0000 E_impro  =         0.0000 E_vdwl   =       723.2938 
E_coul   =     14690.1753 E_long   =    -19454.8250 Press    =     -1518.6191 
Volume   =     10929.3203 
SHAKE stats (type/ave/delta) on step 70000
  2 0.999968 5.84123e-06
  2 109.47 0.000588111
---------------- Step    70000 ----- CPU =    184.7832 (sec) ----------------
TotEng   =     -3295.1539 KinEng   =       667.1842 Temp     =       309.1526 
PotEng   =     -3962.3381 E_bond   =         1.3855 E_angle  =         0.5436 
E_dihed  =         0.0000 E_impro  =         0.0000 E_vdwl   =       772.7601 
E_coul   =     14715.5789 E_long   =    -19452.6062 Press    =        62.5267 
Volume   =     10985.9578 
SHAKE stats (type/ave/delta) on step 80000
  2 1.00004 3.7803e-06
  2 109.47 0.000376452
---------------- Step    80000 ----- CPU =    212.1832 (sec) ----------------
TotEng   =     -3357.0961 KinEng   =       661.1855 Temp     =       306.3730 
PotEng   =     -4018.2816 E_bond   =         2.9383 E_angle  =         1.6567 
E_dihed  =         0.0000 E_impro  =         0.0000 E_vdwl   =       768.8072 
E_coul   =     14662.7629 E_long   =    -19454.4466 Press    =      -104.1625 
Volume   =     10818.9500 
SHAKE stats (type/ave/delta) on step 90000
  2 1.00003 7.07427e-06
  2 109.47 0.000436352
---------------- Step    90000 ----- CPU =    239.9980 (sec) ----------------
TotEng   =     -3322.9592 KinEng   =       660.3700 Temp     =       305.9951 
PotEng   =     -3983.3293 E_bond   =         2.2481 E_angle  =         1.3900 
E_dihed  =         0.0000 E_impro  =         0.0000 E_vdwl   =       732.5845 
E_coul   =     14733.9004 E_long   =    -19453.4521 Press    =      -839.2044 
Volume   =     11115.4823 
SHAKE stats (type/ave/delta) on step 100000
  2 1.00002 5.766e-06
  2 109.47 0.000501237
---------------- Step   100000 ----- CPU =    267.6076 (sec) ----------------
TotEng   =     -3335.9460 KinEng   =       644.2359 Temp     =       298.5190 
PotEng   =     -3980.1818 E_bond   =         4.3487 E_angle  =         2.5731 
E_dihed  =         0.0000 E_impro  =         0.0000 E_vdwl   =       761.3091 
E_coul   =     14703.5558 E_long   =    -19451.9685 Press    =       432.3144 
Volume   =     10679.8375 
SHAKE stats (type/ave/delta) on step 110000
  2 0.999988 9.10378e-06
  2 109.47 0.000700072
---------------- Step   110000 ----- CPU =    295.6712 (sec) ----------------
TotEng   =     -3357.9793 KinEng   =       672.1323 Temp     =       311.4454 
PotEng   =     -4030.1115 E_bond   =         3.2721 E_angle  =         0.9971 
E_dihed  =         0.0000 E_impro  =         0.0000 E_vdwl   =       833.3438 
E_coul   =     14586.8057 E_long   =    -19454.5302 Press    =      1219.0710 
Volume   =     10795.4280 
SHAKE stats (type/ave/delta) on step 120000
  2 0.999993 4.97943e-06
  2 109.47 0.000396932
---------------- Step   120000 ----- CPU =    323.5850 (sec) ----------------
TotEng   =     -3303.0238 KinEng   =       664.8504 Temp     =       308.0712 
PotEng   =     -3967.8742 E_bond   =         1.1035 E_angle  =         2.1340 
E_dihed  =         0.0000 E_impro  =         0.0000 E_vdwl   =       720.4139 
E_coul   =     14761.1226 E_long   =    -19452.6482 Press    =     -1073.1866 
Volume   =     11214.8144 
SHAKE stats (type/ave/delta) on step 130000
  2 1.00002 3.72785e-06
  2 109.47 0.000370124
---------------- Step   130000 ----- CPU =    350.9175 (sec) ----------------
TotEng   =     -3307.7248 KinEng   =       625.0523 Temp     =       289.6299 
PotEng   =     -3932.7771 E_bond   =         2.6463 E_angle  =         1.6828 
E_dihed  =         0.0000 E_impro  =         0.0000 E_vdwl   =       770.1153 
E_coul   =     14747.5376 E_long   =    -19454.7590 Press    =       472.6800 
Volume   =     10857.9269 
SHAKE stats (type/ave/delta) on step 140000
  2 1.00006 6.36851e-06
  2 109.47 0.000454155
---------------- Step   140000 ----- CPU =    377.5432 (sec) ----------------
TotEng   =     -3335.2795 KinEng   =       650.4795 Temp     =       301.4122 
PotEng   =     -3985.7590 E_bond   =         2.3903 E_angle  =         2.3035 
E_dihed  =         0.0000 E_impro  =         0.0000 E_vdwl   =       777.6802 
E_coul   =     14683.3526 E_long   =    -19451.4857 Press    =       -18.2766 
Volume   =     10899.0982 
SHAKE stats (type/ave/delta) on step 150000
  2 1.0001 5.45022e-06
  2 109.47 0.000437426
---------------- Step   150000 ----- CPU =    405.3510 (sec) ----------------
TotEng   =     -3294.7194 KinEng   =       641.8323 Temp     =       297.4053 
PotEng   =     -3936.5517 E_bond   =         1.2921 E_angle  =         2.0289 
E_dihed  =         0.0000 E_impro  =         0.0000 E_vdwl   =       742.4567 
E_coul   =     14770.4342 E_long   =    -19452.7636 Press    =      -210.9840 
Volume   =     10850.1394 
SHAKE stats (type/ave/delta) on step 160000
  2 0.999906 8.58533e-06
  2 109.47 0.000896024
---------------- Step   160000 ----- CPU =    432.9584 (sec) ----------------
TotEng   =     -3361.4275 KinEng   =       636.2825 Temp     =       294.8337 
PotEng   =     -3997.7100 E_bond   =         3.4146 E_angle  =         2.4075 
E_dihed  =         0.0000 E_impro  =         0.0000 E_vdwl   =       868.4781 
E_coul   =     14581.9556 E_long   =    -19453.9657 Press    =      2131.0212 
Volume   =     10814.4545 
SHAKE stats (type/ave/delta) on step 170000
  2 0.999899 4.34857e-06
  2 109.47 0.000450796
---------------- Step   170000 ----- CPU =    461.0389 (sec) ----------------
TotEng   =     -3360.6630 KinEng   =       639.8241 Temp     =       296.4748 
PotEng   =     -4000.4871 E_bond   =         0.3847 E_angle  =         0.8227 
E_dihed  =         0.0000 E_impro  =         0.0000 E_vdwl   =       714.7691 
E_coul   =     14736.5226 E_long   =    -19452.9862 Press    =     -1162.5024 
Volume   =     10968.3419 
SHAKE stats (type/ave/delta) on step 180000
  2 0.999939 4.25996e-06
  2 109.47 0.000393211
---------------- Step   180000 ----- CPU =    489.3456 (sec) ----------------
TotEng   =     -3362.2949 KinEng   =       622.7609 Temp     =       288.5682 
PotEng   =     -3985.0559 E_bond   =         2.1962 E_angle  =         2.1735 
E_dihed  =         0.0000 E_impro  =         0.0000 E_vdwl   =       712.8336 
E_coul   =     14754.8518 E_long   =    -19457.1110 Press    =     -1012.5398 
Volume   =     10699.0209 
SHAKE stats (type/ave/delta) on step 190000
  2 1.00014 4.85668e-06
  2 109.47 0.000548387
---------------- Step   190000 ----- CPU =    516.7172 (sec) ----------------
TotEng   =     -3358.5064 KinEng   =       671.3661 Temp     =       311.0903 
PotEng   =     -4029.8724 E_bond   =         0.6881 E_angle  =         1.6477 
E_dihed  =         0.0000 E_impro  =         0.0000 E_vdwl   =       716.2453 
E_coul   =     14705.2543 E_long   =    -19453.7077 Press    =     -1578.4701 
Volume   =     11100.3462 
SHAKE stats (type/ave/delta) on step 200000
  2 0.999936 7.82923e-06
  2 109.47 0.000562818
---------------- Step   200000 ----- CPU =    544.5491 (sec) ----------------
TotEng   =     -3321.8519 KinEng   =       634.1625 Temp     =       293.8513 
PotEng   =     -3956.0144 E_bond   =         0.5886 E_angle  =         2.5164 
E_dihed  =         0.0000 E_impro  =         0.0000 E_vdwl   =       738.4462 
E_coul   =     14755.8709 E_long   =    -19453.4365 Press    =      -382.4164 
Volume   =     10744.6722 
SHAKE stats (type/ave/delta) on step 210000
  2 1.00001 1.32538e-05
  2 109.47 0.000842711
---------------- Step   210000 ----- CPU =    572.1648 (sec) ----------------
TotEng   =     -3423.5287 KinEng   =       621.0463 Temp     =       287.7737 
PotEng   =     -4044.5750 E_bond   =         0.6344 E_angle  =         2.5754 
E_dihed  =         0.0000 E_impro  =         0.0000 E_vdwl   =       788.0012 
E_coul   =     14620.3546 E_long   =    -19456.1407 Press    =      -314.7061 
Volume   =     11054.2988 
SHAKE stats (type/ave/delta) on step 220000
  2 1.00003 7.94607e-06
  2 109.47 0.000687139
---------------- Step   220000 ----- CPU =    599.8599 (sec) ----------------
TotEng   =     -3356.8446 KinEng   =       677.6380 Temp     =       313.9965 
PotEng   =     -4034.4825 E_bond   =         3.2495 E_angle  =         0.6531 
E_dihed  =         0.0000 E_impro  =         0.0000 E_vdwl   =       799.8947 
E_coul   =     14616.4968 E_long   =    -19454.7767 Press    =       800.1817 
Volume   =     10738.6916 
SHAKE stats (type/ave/delta) on step 230000
  2 1.00008 4.08969e-06
  2 109.47 0.000394731
---------------- Step   230000 ----- CPU =    628.2028 (sec) ----------------
TotEng   =     -3397.5893 KinEng   =       618.0205 Temp     =       286.3717 
PotEng   =     -4015.6098 E_bond   =         2.4848 E_angle  =         3.7079 
E_dihed  =         0.0000 E_impro  =         0.0000 E_vdwl   =       755.3377 
E_coul   =     14677.8381 E_long   =    -19454.9783 Press    =      -617.1747 
Volume   =     10920.3360 
SHAKE stats (type/ave/delta) on step 240000
  2 1.00003 1.46121e-05
  2 109.47 0.00124455
---------------- Step   240000 ----- CPU =    656.0715 (sec) ----------------
TotEng   =     -3349.1387 KinEng   =       625.9580 Temp     =       290.0496 
PotEng   =     -3975.0967 E_bond   =         4.3931 E_angle  =         1.5720 
E_dihed  =         0.0000 E_impro  =         0.0000 E_vdwl   =       762.0358 
E_coul   =     14710.4291 E_long   =    -19453.5266 Press    =      -689.1799 
Volume   =     11028.9666 
SHAKE stats (type/ave/delta) on step 250000
  2 1.00002 9.636e-06
  2 109.47 0.000961233
---------------- Step   250000 ----- CPU =    682.9838 (sec) ----------------
TotEng   =     -3319.9489 KinEng   =       649.0019 Temp     =       300.7275 
PotEng   =     -3968.9508 E_bond   =         3.6510 E_angle  =         1.6487 
E_dihed  =         0.0000 E_impro  =         0.0000 E_vdwl   =       832.1516 
E_coul   =     14646.9564 E_long   =    -19453.3585 Press    =      1627.1294 
Volume   =     10637.1464 
SHAKE stats (type/ave/delta) on step 260000
  2 1.00001 1.61855e-05
  2 109.47 0.0010598
---------------- Step   260000 ----- CPU =    709.2399 (sec) ----------------
TotEng   =     -3367.4544 KinEng   =       677.6408 Temp     =       313.9979 
PotEng   =     -4045.0953 E_bond   =         2.3304 E_angle  =         0.6607 
E_dihed  =         0.0000 E_impro  =         0.0000 E_vdwl   =       798.5502 
E_coul   =     14606.9578 E_long   =    -19453.5944 Press    =       483.6318 
Volume   =     10755.1633 
SHAKE stats (type/ave/delta) on step 270000
  2 0.999999 6.34242e-06
  2 109.47 0.000503287
---------------- Step   270000 ----- CPU =    735.8023 (sec) ----------------
TotEng   =     -3345.6567 KinEng   =       678.7256 Temp     =       314.5005 
PotEng   =     -4024.3823 E_bond   =         1.5325 E_angle  =         2.7983 
E_dihed  =         0.0000 E_impro  =         0.0000 E_vdwl   =       737.5584 
E_coul   =     14686.7096 E_long   =    -19452.9811 Press    =     -1059.4005 
Volume   =     11013.1014 
SHAKE stats (type/ave/delta) on step 280000
  2 0.999939 6.28521e-06
  2 109.47 0.000553486
---------------- Step   280000 ----- CPU =    761.2291 (sec) ----------------
TotEng   =     -3293.8556 KinEng   =       665.2012 Temp     =       308.2337 
PotEng   =     -3959.0569 E_bond   =         3.8523 E_angle  =         1.7692 
E_dihed  =         0.0000 E_impro  =         0.0000 E_vdwl   =       820.9527 
E_coul   =     14667.9930 E_long   =    -19453.6240 Press    =      1415.4860 
Volume   =     10937.9192 
SHAKE stats (type/ave/delta) on step 290000
  2 0.999957 1.34936e-05
  2 109.47 0.00189437
---------------- Step   290000 ----- CPU =    786.3071 (sec) ----------------
TotEng   =     -3400.7381 KinEng   =       634.8750 Temp     =       294.1815 
PotEng   =     -4035.6131 E_bond   =         4.0036 E_angle  =         1.5571 
E_dihed  =         0.0000 E_impro  =         0.0000 E_vdwl   =       750.2119 
E_coul   =     14663.1848 E_long   =    -19454.5705 Press    =     -1157.1208 
Volume   =     10833.7347 
SHAKE stats (type/ave/delta) on step 300000
  2 1.00006 4.16844e-06
  2 109.47 0.00039029
---------------- Step   300000 ----- CPU =    811.7392 (sec) ----------------
TotEng   =     -3280.5603 KinEng   =       653.2116 Temp     =       302.6781 
PotEng   =     -3933.7719 E_bond   =         3.8048 E_angle  =         0.9508 
E_dihed  =         0.0000 E_impro  =         0.0000 E_vdwl   =       718.2387 
E_coul   =     14799.0117 E_long   =    -19455.7778 Press    =      -404.0885 
Volume   =     10893.3026 
SHAKE stats (type/ave/delta) on step 310000
  2 1.00006 8.49938e-06
  2 109.47 0.000641935
---------------- Step   310000 ----- CPU =    839.1173 (sec) ----------------
TotEng   =     -3377.4202 KinEng   =       642.7913 Temp     =       297.8497 
PotEng   =     -4020.2115 E_bond   =         4.3196 E_angle  =         2.1003 
E_dihed  =         0.0000 E_impro  =         0.0000 E_vdwl   =       810.6718 
E_coul   =     14617.5002 E_long   =    -19454.8034 Press    =       872.5022 
Volume   =     10780.7753 
SHAKE stats (type/ave/delta) on step 320000
  2 0.999889 9.11801e-06
  2 109.47 0.000678118
---------------- Step   320000 ----- CPU =    866.2057 (sec) ----------------
TotEng   =     -3364.3022 KinEng   =       639.2830 Temp     =       296.2240 
PotEng   =     -4003.5852 E_bond   =         1.4486 E_angle  =         1.3636 
E_dihed  =         0.0000 E_impro  =         0.0000 E_vdwl   =       813.7259 
E_coul   =     14636.4082 E_long   =    -19456.5316 Press    =       809.3563 
Volume   =     10818.1096 
SHAKE stats (type/ave/delta) on step 330000
  2 1.00005 1.30496e-05
  2 109.47 0.00105343
---------------- Step   330000 ----- CPU =    893.4127 (sec) ----------------
TotEng   =     -3390.3951 KinEng   =       643.9163 Temp     =       298.3710 
PotEng   =     -4034.3115 E_bond   =         3.0635 E_angle  =         1.1378 
E_dihed  =         0.0000 E_impro  =         0.0000 E_vdwl   =       797.3831 
E_coul   =     14617.8051 E_long   =    -19453.7009 Press    =       341.2183 
Volume   =     10679.1545 
SHAKE stats (type/ave/delta) on step 340000
  2 0.999965 5.4241e-06
  2 109.47 0.000558863
---------------- Step   340000 ----- CPU =    920.6178 (sec) ----------------
TotEng   =     -3374.5879 KinEng   =       629.5925 Temp     =       291.7337 
PotEng   =     -4004.1804 E_bond   =         3.5368 E_angle  =         0.6125 
E_dihed  =         0.0000 E_impro  =         0.0000 E_vdwl   =       756.5017 
E_coul   =     14689.0391 E_long   =    -19453.8704 Press    =       -49.4984 
Volume   =     10809.8306 
SHAKE stats (type/ave/delta) on step 350000
  2 0.999888 5.26932e-06
  2 109.47 0.000488113
---------------- Step   350000 ----- CPU =    947.6455 (sec) ----------------
TotEng   =     -3369.4087 KinEng   =       649.5519 Temp     =       300.9823 
PotEng   =     -4018.9606 E_bond   =         0.5417 E_angle  =         1.1965 
E_dihed  =         0.0000 E_impro  =         0.0000 E_vdwl   =       747.2506 
E_coul   =     14682.0683 E_long   =    -19450.0177 Press    =      -705.5392 
Volume   =     10978.2086 
SHAKE stats (type/ave/delta) on step 360000
  2 1.00002 6.29679e-06
  2 109.47 0.000601313
---------------- Step   360000 ----- CPU =    974.3551 (sec) ----------------
TotEng   =     -3332.0155 KinEng   =       654.5952 Temp     =       303.3192 
PotEng   =     -3986.6106 E_bond   =         0.5944 E_angle  =         1.4030 
E_dihed  =         0.0000 E_impro  =         0.0000 E_vdwl   =       736.8257 
E_coul   =     14726.9693 E_long   =    -19452.4031 Press    =      -497.0090 
Volume   =     10771.3543 
SHAKE stats (type/ave/delta) on step 370000
  2 1.00005 4.06661e-06
  2 109.47 0.000374957
---------------- Step   370000 ----- CPU =   1001.2811 (sec) ----------------
TotEng   =     -3344.3976 KinEng   =       664.9770 Temp     =       308.1298 
PotEng   =     -4009.3746 E_bond   =         1.3400 E_angle  =         0.8320 
E_dihed  =         0.0000 E_impro  =         0.0000 E_vdwl   =       867.7525 
E_coul   =     14570.6086 E_long   =    -19449.9077 Press    =      1586.4111 
Volume   =     10998.0323 
SHAKE stats (type/ave/delta) on step 380000
  2 1.00006 8.62951e-06
  2 109.47 0.000858447
---------------- Step   380000 ----- CPU =   1028.8517 (sec) ----------------
TotEng   =     -3393.2849 KinEng   =       629.3404 Temp     =       291.6170 
PotEng   =     -4022.6253 E_bond   =         0.8489 E_angle  =         0.7778 
E_dihed  =         0.0000 E_impro  =         0.0000 E_vdwl   =       768.4571 
E_coul   =     14660.2688 E_long   =    -19452.9778 Press    =      -468.9954 
Volume   =     10895.6855 
SHAKE stats (type/ave/delta) on step 390000
  2 1.00001 9.23425e-06
  2 109.47 0.000561075
---------------- Step   390000 ----- CPU =   1056.4052 (sec) ----------------
TotEng   =     -3362.5263 KinEng   =       632.4443 Temp     =       293.0552 
PotEng   =     -3994.9705 E_bond   =         2.1697 E_angle  =         1.0140 
E_dihed  =         0.0000 E_impro  =         0.0000 E_vdwl   =       790.6262 
E_coul   =     14664.4772 E_long   =    -19453.2575 Press    =       279.7984 
Volume   =     11021.4247 
SHAKE stats (type/ave/delta) on step 400000
  2 1.00004 4.62827e-06
  2 109.47 0.000523718
---------------- Step   400000 ----- CPU =   1083.3750 (sec) ----------------
TotEng   =     -3336.4346 KinEng   =       688.4293 Temp     =       318.9969 
PotEng   =     -4024.8639 E_bond   =         1.6086 E_angle  =         1.0785 
E_dihed  =         0.0000 E_impro  =         0.0000 E_vdwl   =       808.6610 
E_coul   =     14616.8636 E_long   =    -19453.0755 Press    =       414.3023 
Volume   =     10833.0830 
SHAKE stats (type/ave/delta) on step 410000
  2 0.999969 7.29994e-06
  2 109.47 0.000601556
---------------- Step   410000 ----- CPU =   1110.6413 (sec) ----------------
TotEng   =     -3259.7661 KinEng   =       632.0377 Temp     =       292.8668 
PotEng   =     -3891.8038 E_bond   =         2.4782 E_angle  =         1.3081 
E_dihed  =         0.0000 E_impro  =         0.0000 E_vdwl   =       709.9983 
E_coul   =     14849.4826 E_long   =    -19455.0710 Press    =      -396.4727 
Volume   =     11066.8940 
SHAKE stats (type/ave/delta) on step 420000
  2 1.00012 4.78081e-06
  2 109.47 0.000462139
---------------- Step   420000 ----- CPU =   1137.9569 (sec) ----------------
TotEng   =     -3351.9820 KinEng   =       624.4768 Temp     =       289.3633 
PotEng   =     -3976.4588 E_bond   =         3.3105 E_angle  =         1.6510 
E_dihed  =         0.0000 E_impro  =         0.0000 E_vdwl   =       753.6312 
E_coul   =     14719.9447 E_long   =    -19454.9962 Press    =      -456.4282 
Volume   =     10771.2304 
SHAKE stats (type/ave/delta) on step 430000
  2 0.999979 6.40981e-06
  2 109.47 0.000482612
---------------- Step   430000 ----- CPU =   1165.5028 (sec) ----------------
TotEng   =     -3370.1313 KinEng   =       635.7668 Temp     =       294.5947 
PotEng   =     -4005.8981 E_bond   =         2.7248 E_angle  =         1.0682 
E_dihed  =         0.0000 E_impro  =         0.0000 E_vdwl   =       745.8137 
E_coul   =     14699.6393 E_long   =    -19455.1441 Press    =      -137.0643 
Volume   =     10895.6735 
SHAKE stats (type/ave/delta) on step 440000
  2 1.00006 1.1666e-05
  2 109.47 0.000754699
---------------- Step   440000 ----- CPU =   1193.6642 (sec) ----------------
TotEng   =     -3375.5520 KinEng   =       655.1438 Temp     =       303.5734 
PotEng   =     -4030.6958 E_bond   =         4.0293 E_angle  =         2.3034 
E_dihed  =         0.0000 E_impro  =         0.0000 E_vdwl   =       734.3635 
E_coul   =     14683.1704 E_long   =    -19454.5624 Press    =     -1427.7605 
Volume   =     10816.8349 
SHAKE stats (type/ave/delta) on step 450000
  2 0.999998 8.25243e-06
  2 109.47 0.000701098
---------------- Step   450000 ----- CPU =   1221.4430 (sec) ----------------
TotEng   =     -3316.8250 KinEng   =       638.7378 Temp     =       295.9714 
PotEng   =     -3955.5628 E_bond   =         2.6432 E_angle  =         1.7874 
E_dihed  =         0.0000 E_impro  =         0.0000 E_vdwl   =       724.9257 
E_coul   =     14769.5873 E_long   =    -19454.5064 Press    =     -1014.4465 
Volume   =     11084.8487 
SHAKE stats (type/ave/delta) on step 460000
  2 1 4.05451e-06
  2 109.47 0.000374285
---------------- Step   460000 ----- CPU =   1248.6179 (sec) ----------------
TotEng   =     -3379.3099 KinEng   =       633.9566 Temp     =       293.7560 
PotEng   =     -4013.2666 E_bond   =         0.3834 E_angle  =         1.1970 
E_dihed  =         0.0000 E_impro  =         0.0000 E_vdwl   =       789.7853 
E_coul   =     14647.7672 E_long   =    -19452.3995 Press    =       314.6602 
Volume   =     10877.5013 
SHAKE stats (type/ave/delta) on step 470000
  2 1.00003 3.86691e-06
  2 109.47 0.000336716
---------------- Step   470000 ----- CPU =   1276.7300 (sec) ----------------
TotEng   =     -3282.0738 KinEng   =       668.5386 Temp     =       309.7802 
PotEng   =     -3950.6124 E_bond   =         0.7480 E_angle  =         1.4450 
E_dihed  =         0.0000 E_impro  =         0.0000 E_vdwl   =       728.5901 
E_coul   =     14771.1208 E_long   =    -19452.5162 Press    =      -146.1699 
Volume   =     10724.7661 
SHAKE stats (type/ave/delta) on step 480000
  2 0.999908 6.63158e-06
  2 109.47 0.000648053
---------------- Step   480000 ----- CPU =   1305.8194 (sec) ----------------
TotEng   =     -3320.0014 KinEng   =       659.1377 Temp     =       305.4241 
PotEng   =     -3979.1391 E_bond   =         3.1155 E_angle  =         2.4565 
E_dihed  =         0.0000 E_impro  =         0.0000 E_vdwl   =       827.5243 
E_coul   =     14639.6380 E_long   =    -19451.8734 Press    =      1212.3191 
Volume   =     10806.9349 
SHAKE stats (type/ave/delta) on step 490000
  2 1.00002 7.69161e-06
  2 109.47 0.000849038
---------------- Step   490000 ----- CPU =   1334.7191 (sec) ----------------
TotEng   =     -3287.8583 KinEng   =       659.7872 Temp     =       305.7250 
PotEng   =     -3947.6455 E_bond   =         4.4166 E_angle  =         1.1526 
E_dihed  =         0.0000 E_impro  =         0.0000 E_vdwl   =       741.4286 
E_coul   =     14759.6502 E_long   =    -19454.2935 Press    =      -821.4476 
Volume   =     11109.9448 
SHAKE stats (type/ave/delta) on step 500000
  2 0.999883 4.49125e-06
  2 109.47 0.00041906
---------------- Step   500000 ----- CPU =   1362.2149 (sec) ----------------
TotEng   =     -3333.2954 KinEng   =       628.0103 Temp     =       291.0006 
PotEng   =     -3961.3057 E_bond   =         3.5732 E_angle  =         2.4399 
E_dihed  =         0.0000 E_impro  =         0.0000 E_vdwl   =       717.7416 
E_coul   =     14769.5703 E_long   =    -19454.6307 Press    =     -1174.2483 
Volume   =     10907.6513 
SHAKE stats (type/ave/delta) on step 510000
  2 0.999961 5.67643e-06
  2 109.47 0.000583104
---------------- Step   510000 ----- CPU =   1387.8778 (sec) ----------------
TotEng   =     -3262.5805 KinEng   =       669.7086 Temp     =       310.3223 
PotEng   =     -3932.2892 E_bond   =         1.8221 E_angle  =         1.0004 
E_dihed  =         0.0000 E_impro  =         0.0000 E_vdwl   =       781.3644 
E_coul   =     14736.8057 E_long   =    -19453.2817 Press    =       914.4445 
Volume   =     10907.1586 
SHAKE stats (type/ave/delta) on step 520000
  2 0.999988 7.77273e-06
  2 109.47 0.000708373
---------------- Step   520000 ----- CPU =   1413.0253 (sec) ----------------
TotEng   =     -3354.0996 KinEng   =       604.5134 Temp     =       280.1129 
PotEng   =     -3958.6131 E_bond   =         2.5359 E_angle  =         2.7947 
E_dihed  =         0.0000 E_impro  =         0.0000 E_vdwl   =       777.1477 
E_coul   =     14713.1896 E_long   =    -19454.2810 Press    =       383.6925 
Volume   =     10586.3474 
SHAKE stats (type/ave/delta) on step 530000
  2 1.00014 5.04481e-06
  2 109.47 0.000418226
---------------- Step   530000 ----- CPU =   1437.9639 (sec) ----------------
TotEng   =     -3368.7456 KinEng   =       671.0816 Temp     =       310.9585 
PotEng   =     -4039.8272 E_bond   =         4.7214 E_angle  =         1.8475 
E_dihed  =         0.0000 E_impro  =         0.0000 E_vdwl   =       798.4034 
E_coul   =     14608.0276 E_long   =    -19452.8271 Press    =       344.4871 
Volume   =     10597.7138 
SHAKE stats (type/ave/delta) on step 540000
  2 1.00001 4.36026e-06
  2 109.47 0.000458527
---------------- Step   540000 ----- CPU =   1463.4791 (sec) ----------------
TotEng   =     -3296.1428 KinEng   =       682.6379 Temp     =       316.3134 
PotEng   =     -3978.7807 E_bond   =         0.6779 E_angle  =         3.3112 
E_dihed  =         0.0000 E_impro  =         0.0000 E_vdwl   =       818.6922 
E_coul   =     14654.2457 E_long   =    -19455.7077 Press    =      1426.0369 
Volume   =     10672.4201 
SHAKE stats (type/ave/delta) on step 550000
  2 1.00007 4.95295e-06
  2 109.47 0.000473984
---------------- Step   550000 ----- CPU =   1489.7661 (sec) ----------------
TotEng   =     -3346.5315 KinEng   =       642.6356 Temp     =       297.7775 
PotEng   =     -3989.1671 E_bond   =         1.2778 E_angle  =         2.8393 
E_dihed  =         0.0000 E_impro  =         0.0000 E_vdwl   =       798.3285 
E_coul   =     14661.4011 E_long   =    -19453.0138 Press    =      1065.1370 
Volume   =     10695.7105 
SHAKE stats (type/ave/delta) on step 560000
  2 1.00022 8.69376e-06
  2 109.47 0.000794781
---------------- Step   560000 ----- CPU =   1518.1447 (sec) ----------------
TotEng   =     -3261.6119 KinEng   =       667.8500 Temp     =       309.4611 
PotEng   =     -3929.4618 E_bond   =         3.3140 E_angle  =         3.3080 
E_dihed  =         0.0000 E_impro  =         0.0000 E_vdwl   =       725.7797 
E_coul   =     14787.5559 E_long   =    -19449.4194 Press    =      -788.1287 
Volume   =     11020.9962 
SHAKE stats (type/ave/delta) on step 570000
  2 1 5.87205e-06
  2 109.47 0.000596283
---------------- Step   570000 ----- CPU =   1546.2559 (sec) ----------------
TotEng   =     -3244.7975 KinEng   =       672.6209 Temp     =       311.6718 
PotEng   =     -3917.4184 E_bond   =         0.7735 E_angle  =         1.7263 
E_dihed  =         0.0000 E_impro  =         0.0000 E_vdwl   =       782.6769 
E_coul   =     14749.2616 E_long   =    -19451.8567 Press    =       192.4173 
Volume   =     11392.3107 
SHAKE stats (type/ave/delta) on step 580000
  2 0.999998 1.40295e-05
  2 109.47 0.00101182
---------------- Step   580000 ----- CPU =   1573.0175 (sec) ----------------
TotEng   =     -3299.2680 KinEng   =       665.0174 Temp     =       308.1485 
PotEng   =     -3964.2854 E_bond   =         5.0800 E_angle  =         1.4360 
E_dihed  =         0.0000 E_impro  =         0.0000 E_vdwl   =       826.2436 
E_coul   =     14654.1792 E_long   =    -19451.2242 Press    =       906.4968 
Volume   =     10879.6257 
SHAKE stats (type/ave/delta) on step 590000
  2 1.00013 1.10645e-05
  2 109.47 0.000925139
---------------- Step   590000 ----- CPU =   1600.6231 (sec) ----------------
TotEng   =     -3345.5475 KinEng   =       632.9282 Temp     =       293.2794 
PotEng   =     -3978.4757 E_bond   =         2.0054 E_angle  =         1.2019 
E_dihed  =         0.0000 E_impro  =         0.0000 E_vdwl   =       843.7924 
E_coul   =     14626.4684 E_long   =    -19451.9438 Press    =      1247.7286 
Volume   =     10936.5764 
SHAKE stats (type/ave/delta) on step 600000
  2 1.00002 4.66093e-06
  2 109.47 0.000424892
---------------- Step   600000 ----- CPU =   1628.3216 (sec) ----------------
TotEng   =     -3336.7668 KinEng   =       648.2321 Temp     =       300.3708 
PotEng   =     -3984.9988 E_bond   =         2.7949 E_angle  =         3.4552 
E_dihed  =         0.0000 E_impro  =         0.0000 E_vdwl   =       777.0000 
E_coul   =     14686.7977 E_long   =    -19455.0467 Press    =       -16.8640 
Volume   =     10842.4341 
SHAKE stats (type/ave/delta) on step 610000
  2 0.999968 4.062e-06
  2 109.47 0.000354348
---------------- Step   610000 ----- CPU =   1655.7737 (sec) ----------------
TotEng   =     -3301.2473 KinEng   =       642.7890 Temp     =       297.8486 
PotEng   =     -3944.0363 E_bond   =         2.4211 E_angle  =         3.4526 
E_dihed  =         0.0000 E_impro  =         0.0000 E_vdwl   =       725.3116 
E_coul   =     14779.1990 E_long   =    -19454.4205 Press    =      -607.1473 
Volume   =     11061.3884 
SHAKE stats (type/ave/delta) on step 620000
  2 1.00007 8.05521e-06
  2 109.47 0.000673509
---------------- Step   620000 ----- CPU =   1683.6668 (sec) ----------------
TotEng   =     -3332.7980 KinEng   =       643.9988 Temp     =       298.4092 
PotEng   =     -3976.7968 E_bond   =         2.3211 E_angle  =         1.1544 
E_dihed  =         0.0000 E_impro  =         0.0000 E_vdwl   =       766.9935 
E_coul   =     14706.0467 E_long   =    -19453.3125 Press    =       179.8313 
Volume   =     10910.3929 
SHAKE stats (type/ave/delta) on step 630000
  2 1.00007 1.02765e-05
  2 109.47 0.000798067
---------------- Step   630000 ----- CPU =   1711.7960 (sec) ----------------
TotEng   =     -3308.6727 KinEng   =       642.0415 Temp     =       297.5022 
PotEng   =     -3950.7142 E_bond   =         2.0101 E_angle  =         0.5277 
E_dihed  =         0.0000 E_impro  =         0.0000 E_vdwl   =       781.3818 
E_coul   =     14715.9668 E_long   =    -19450.6006 Press    =       437.7604 
Volume   =     10832.5509 
SHAKE stats (type/ave/delta) on step 640000
  2 0.999928 7.0037e-06
  2 109.47 0.000444186
---------------- Step   640000 ----- CPU =   1739.8682 (sec) ----------------
TotEng   =     -3405.4470 KinEng   =       655.2686 Temp     =       303.6313 
PotEng   =     -4060.7156 E_bond   =         2.9686 E_angle  =         1.0320 
E_dihed  =         0.0000 E_impro  =         0.0000 E_vdwl   =       809.8788 
E_coul   =     14581.5847 E_long   =    -19456.1797 Press    =       578.0085 
Volume   =     10747.6718 
SHAKE stats (type/ave/delta) on step 650000
  2 0.999976 8.8204e-06
  2 109.47 0.000918469
---------------- Step   650000 ----- CPU =   1768.1432 (sec) ----------------
TotEng   =     -3290.7117 KinEng   =       651.8850 Temp     =       302.0634 
PotEng   =     -3942.5967 E_bond   =         0.8425 E_angle  =         3.3087 
E_dihed  =         0.0000 E_impro  =         0.0000 E_vdwl   =       764.2279 
E_coul   =     14743.3629 E_long   =    -19454.3386 Press    =         7.7832 
Volume   =     10940.2186 
SHAKE stats (type/ave/delta) on step 660000
  2 1.00014 5.63496e-06
  2 109.47 0.000529652
---------------- Step   660000 ----- CPU =   1796.4074 (sec) ----------------
TotEng   =     -3314.7075 KinEng   =       659.1026 Temp     =       305.4078 
PotEng   =     -3973.8102 E_bond   =         4.0140 E_angle  =         2.6475 
E_dihed  =         0.0000 E_impro  =         0.0000 E_vdwl   =       790.3503 
E_coul   =     14683.5978 E_long   =    -19454.4197 Press    =       497.3816 
Volume   =     10700.9924 
SHAKE stats (type/ave/delta) on step 670000
  2 1.00012 4.93834e-06
  2 109.47 0.000499385
---------------- Step   670000 ----- CPU =   1824.9443 (sec) ----------------
TotEng   =     -3309.4311 KinEng   =       638.0075 Temp     =       295.6330 
PotEng   =     -3947.4386 E_bond   =         2.5880 E_angle  =         2.1566 
E_dihed  =         0.0000 E_impro  =         0.0000 E_vdwl   =       765.6278 
E_coul   =     14737.5490 E_long   =    -19455.3600 Press    =        -7.9822 
Volume   =     11082.1951 
SHAKE stats (type/ave/delta) on step 680000
  2 1.00008 9.207e-06
  2 109.47 0.000654096
---------------- Step   680000 ----- CPU =   1853.5815 (sec) ----------------
TotEng   =     -3344.3830 KinEng   =       671.6473 Temp     =       311.2206 
PotEng   =     -4016.0303 E_bond   =         3.6397 E_angle  =         1.0706 
E_dihed  =         0.0000 E_impro  =         0.0000 E_vdwl   =       807.5913 
E_coul   =     14625.0677 E_long   =    -19453.3996 Press    =       509.5992 
Volume   =     10879.4177 
SHAKE stats (type/ave/delta) on step 690000
  2 1.00006 3.86778e-06
  2 109.47 0.000375367
---------------- Step   690000 ----- CPU =   1881.0547 (sec) ----------------
TotEng   =     -3349.3402 KinEng   =       654.6219 Temp     =       303.3316 
PotEng   =     -4003.9621 E_bond   =         3.1819 E_angle  =         1.2525 
E_dihed  =         0.0000 E_impro  =         0.0000 E_vdwl   =       797.1625 
E_coul   =     14646.5188 E_long   =    -19452.0779 Press    =        77.7649 
Volume   =     10981.8593 
SHAKE stats (type/ave/delta) on step 700000
  2 0.999952 1.43758e-05
  2 109.47 0.000997472
---------------- Step   700000 ----- CPU =   1907.6883 (sec) ----------------
TotEng   =     -3366.6973 KinEng   =       646.8583 Temp     =       299.7342 
PotEng   =     -4013.5556 E_bond   =         3.0223 E_angle  =         2.0314 
E_dihed  =         0.0000 E_impro  =         0.0000 E_vdwl   =       858.2082 
E_coul   =     14575.6436 E_long   =    -19452.4611 Press    =      1826.5650 
Volume   =     10739.3166 
SHAKE stats (type/ave/delta) on step 710000
  2 0.9999 4.09727e-06
  2 109.47 0.00041954
---------------- Step   710000 ----- CPU =   1935.5288 (sec) ----------------
TotEng   =     -3328.1967 KinEng   =       691.0966 Temp     =       320.2328 
PotEng   =     -4019.2933 E_bond   =         0.9369 E_angle  =         3.5308 
E_dihed  =         0.0000 E_impro  =         0.0000 E_vdwl   =       819.9540 
E_coul   =     14610.5819 E_long   =    -19454.2969 Press    =       930.6638 
Volume   =     10797.3876 
SHAKE stats (type/ave/delta) on step 720000
  2 0.999986 8.43337e-06
  2 109.47 0.0010718
---------------- Step   720000 ----- CPU =   1963.2031 (sec) ----------------
TotEng   =     -3354.3333 KinEng   =       655.0045 Temp     =       303.5089 
PotEng   =     -4009.3378 E_bond   =         3.1246 E_angle  =         3.7897 
E_dihed  =         0.0000 E_impro  =         0.0000 E_vdwl   =       803.8914 
E_coul   =     14633.5120 E_long   =    -19453.6555 Press    =       176.2941 
Volume   =     10932.9040 
SHAKE stats (type/ave/delta) on step 730000
  2 1.00011 6.0139e-06
  2 109.47 0.000588532
---------------- Step   730000 ----- CPU =   1990.6117 (sec) ----------------
TotEng   =     -3380.9495 KinEng   =       639.0619 Temp     =       296.1216 
PotEng   =     -4020.0114 E_bond   =         2.8887 E_angle  =         5.1781 
E_dihed  =         0.0000 E_impro  =         0.0000 E_vdwl   =       780.9854 
E_coul   =     14646.4249 E_long   =    -19455.4883 Press    =        -3.2761 
Volume   =     10775.2900 
SHAKE stats (type/ave/delta) on step 740000
  2 1.00008 5.04341e-06
  2 109.47 0.000435754
---------------- Step   740000 ----- CPU =   2018.4263 (sec) ----------------
TotEng   =     -3366.1999 KinEng   =       648.8087 Temp     =       300.6380 
PotEng   =     -4015.0086 E_bond   =         2.3752 E_angle  =         2.6307 
E_dihed  =         0.0000 E_impro  =         0.0000 E_vdwl   =       793.5491 
E_coul   =     14641.8140 E_long   =    -19455.3778 Press    =       171.1841 
Volume   =     10903.8431 
SHAKE stats (type/ave/delta) on step 750000
  2 1.00011 6.37466e-06
  2 109.47 0.000691555
---------------- Step   750000 ----- CPU =   2046.3297 (sec) ----------------
TotEng   =     -3331.9299 KinEng   =       685.5267 Temp     =       317.6519 
PotEng   =     -4017.4566 E_bond   =         1.5620 E_angle  =         2.4518 
E_dihed  =         0.0000 E_impro  =         0.0000 E_vdwl   =       781.6473 
E_coul   =     14653.8586 E_long   =    -19456.9763 Press    =       392.0555 
Volume   =     10827.7412 
SHAKE stats (type/ave/delta) on step 760000
  2 0.999898 3.95155e-06
  2 109.47 0.000359397
---------------- Step   760000 ----- CPU =   2072.3139 (sec) ----------------
TotEng   =     -3388.7293 KinEng   =       613.3818 Temp     =       284.2222 
PotEng   =     -4002.1111 E_bond   =         2.7232 E_angle  =         3.6830 
E_dihed  =         0.0000 E_impro  =         0.0000 E_vdwl   =       781.8643 
E_coul   =     14664.6614 E_long   =    -19455.0430 Press    =       423.5230 
Volume   =     10663.1038 
SHAKE stats (type/ave/delta) on step 770000
  2 1.00004 1.41379e-05
  2 109.47 0.000797836
---------------- Step   770000 ----- CPU =   2098.0707 (sec) ----------------
TotEng   =     -3341.2925 KinEng   =       643.9408 Temp     =       298.3823 
PotEng   =     -3985.2333 E_bond   =         1.8933 E_angle  =         4.3588 
E_dihed  =         0.0000 E_impro  =         0.0000 E_vdwl   =       825.7634 
E_coul   =     14634.7279 E_long   =    -19451.9767 Press    =      1295.6269 
Volume   =     10879.6557 
SHAKE stats (type/ave/delta) on step 780000
  2 0.999934 9.32097e-06
  2 109.47 0.000885562
---------------- Step   780000 ----- CPU =   2123.7028 (sec) ----------------
TotEng   =     -3372.2937 KinEng   =       651.1531 Temp     =       301.7243 
PotEng   =     -4023.4468 E_bond   =         0.1731 E_angle  =         3.1206 
E_dihed  =         0.0000 E_impro  =         0.0000 E_vdwl   =       796.6146 
E_coul   =     14632.8202 E_long   =    -19456.1752 Press    =       397.2638 
Volume   =     10758.4713 
SHAKE stats (type/ave/delta) on step 790000
  2 0.999981 1.11526e-05
  2 109.47 0.00125963
---------------- Step   790000 ----- CPU =   2148.9922 (sec) ----------------
TotEng   =     -3404.8804 KinEng   =       624.4125 Temp     =       289.3335 
PotEng   =     -4029.2930 E_bond   =         1.1903 E_angle  =         3.6307 
E_dihed  =         0.0000 E_impro  =         0.0000 E_vdwl   =       756.7054 
E_coul   =     14662.4975 E_long   =    -19453.3168 Press    =      -837.1676 
Volume   =     10927.4386 
SHAKE stats (type/ave/delta) on step 800000
  2 0.999866 5.29097e-06
  2 109.47 0.000542216
---------------- Step   800000 ----- CPU =   2175.0727 (sec) ----------------
TotEng   =     -3375.1195 KinEng   =       621.6140 Temp     =       288.0367 
PotEng   =     -3996.7334 E_bond   =         2.4289 E_angle  =         3.4174 
E_dihed  =         0.0000 E_impro  =         0.0000 E_vdwl   =       727.2879 
E_coul   =     14724.6710 E_long   =    -19454.5386 Press    =      -589.5392 
Volume   =     10823.8898 
SHAKE stats (type/ave/delta) on step 810000
  2 1.00012 1.00745e-05
  2 109.47 0.000787111
---------------- Step   810000 ----- CPU =   2203.3048 (sec) ----------------
TotEng   =     -3394.7056 KinEng   =       656.5033 Temp     =       304.2034 
PotEng   =     -4051.2089 E_bond   =         2.8052 E_angle  =         3.8673 
E_dihed  =         0.0000 E_impro  =         0.0000 E_vdwl   =       781.0205 
E_coul   =     14616.7364 E_long   =    -19455.6383 Press    =      -480.1545 
Volume   =     10799.7368 
SHAKE stats (type/ave/delta) on step 820000
  2 0.999978 6.79091e-06
  2 109.47 0.000656541
---------------- Step   820000 ----- CPU =   2231.0095 (sec) ----------------
TotEng   =     -3375.7934 KinEng   =       655.5439 Temp     =       303.7588 
PotEng   =     -4031.3374 E_bond   =         0.4662 E_angle  =         1.2496 
E_dihed  =         0.0000 E_impro  =         0.0000 E_vdwl   =       777.8318 
E_coul   =     14641.1447 E_long   =    -19452.0295 Press    =       -55.6849 
Volume   =     10914.1651 
SHAKE stats (type/ave/delta) on step 830000
  2 0.999942 9.49455e-06
  2 109.47 0.000745718
---------------- Step   830000 ----- CPU =   2259.9534 (sec) ----------------
TotEng   =     -3330.6858 KinEng   =       645.6068 Temp     =       299.1543 
PotEng   =     -3976.2926 E_bond   =         2.6502 E_angle  =         3.8787 
E_dihed  =         0.0000 E_impro  =         0.0000 E_vdwl   =       773.4864 
E_coul   =     14693.8826 E_long   =    -19450.1905 Press    =       368.9669 
Volume   =     10895.4531 
SHAKE stats (type/ave/delta) on step 840000
  2 1.00002 4.02812e-06
  2 109.47 0.000410882
---------------- Step   840000 ----- CPU =   2288.9197 (sec) ----------------
TotEng   =     -3358.6787 KinEng   =       636.8219 Temp     =       295.0836 
PotEng   =     -3995.5005 E_bond   =         2.4953 E_angle  =         5.0981 
E_dihed  =         0.0000 E_impro  =         0.0000 E_vdwl   =       803.8616 
E_coul   =     14646.1479 E_long   =    -19453.1034 Press    =       446.9243 
Volume   =     10771.9424 
SHAKE stats (type/ave/delta) on step 850000
  2 0.999959 8.3491e-06
  2 109.47 0.000733902
---------------- Step   850000 ----- CPU =   2316.6683 (sec) ----------------
TotEng   =     -3362.9081 KinEng   =       673.7141 Temp     =       312.1784 
PotEng   =     -4036.6222 E_bond   =         1.9247 E_angle  =         3.1954 
E_dihed  =         0.0000 E_impro  =         0.0000 E_vdwl   =       877.6953 
E_coul   =     14535.4541 E_long   =    -19454.8917 Press    =      1731.9777 
Volume   =     10991.7420 
SHAKE stats (type/ave/delta) on step 860000
  2 0.999912 5.00093e-06
  2 109.47 0.000453326
---------------- Step   860000 ----- CPU =   2344.6823 (sec) ----------------
TotEng   =     -3388.0934 KinEng   =       660.6239 Temp     =       306.1128 
PotEng   =     -4048.7173 E_bond   =         2.2745 E_angle  =         2.0414 
E_dihed  =         0.0000 E_impro  =         0.0000 E_vdwl   =       779.3477 
E_coul   =     14619.9507 E_long   =    -19452.3316 Press    =      -504.7241 
Volume   =     11029.5570 
SHAKE stats (type/ave/delta) on step 870000
  2 0.999912 4.57643e-06
  2 109.47 0.000406918
---------------- Step   870000 ----- CPU =   2372.1701 (sec) ----------------
TotEng   =     -3333.1948 KinEng   =       657.0899 Temp     =       304.4752 
PotEng   =     -3990.2848 E_bond   =         1.5754 E_angle  =         4.3698 
E_dihed  =         0.0000 E_impro  =         0.0000 E_vdwl   =       778.2041 
E_coul   =     14679.6892 E_long   =    -19454.1233 Press    =        59.3990 
Volume   =     11021.7611 
SHAKE stats (type/ave/delta) on step 880000
  2 0.999997 4.98357e-06
  2 109.47 0.000494325
---------------- Step   880000 ----- CPU =   2398.9457 (sec) ----------------
TotEng   =     -3278.0956 KinEng   =       653.3342 Temp     =       302.7349 
PotEng   =     -3931.4298 E_bond   =         0.4065 E_angle  =         4.0575 
E_dihed  =         0.0000 E_impro  =         0.0000 E_vdwl   =       792.3835 
E_coul   =     14724.9270 E_long   =    -19453.2042 Press    =       732.8517 
Volume   =     11014.4161 
SHAKE stats (type/ave/delta) on step 890000
  2 1.00008 7.88162e-06
  2 109.47 0.000583013
---------------- Step   890000 ----- CPU =   2426.0897 (sec) ----------------
TotEng   =     -3328.4786 KinEng   =       654.9442 Temp     =       303.4809 
PotEng   =     -3983.4228 E_bond   =         0.5086 E_angle  =         3.0907 
E_dihed  =         0.0000 E_impro  =         0.0000 E_vdwl   =       732.1313 
E_coul   =     14735.3652 E_long   =    -19454.5185 Press    =      -533.8994 
Volume   =     10812.5001 
SHAKE stats (type/ave/delta) on step 900000
  2 1 6.91188e-06
  2 109.47 0.000632423
---------------- Step   900000 ----- CPU =   2454.7697 (sec) ----------------
TotEng   =     -3360.8726 KinEng   =       631.6370 Temp     =       292.6811 
PotEng   =     -3992.5096 E_bond   =         2.7508 E_angle  =         4.4676 
E_dihed  =         0.0000 E_impro  =         0.0000 E_vdwl   =       737.1307 
E_coul   =     14716.1818 E_long   =    -19453.0404 Press    =      -961.9622 
Volume   =     11018.2082 
SHAKE stats (type/ave/delta) on step 910000
  2 1.00016 9.54552e-06
  2 109.47 0.000713203
---------------- Step   910000 ----- CPU =   2482.6679 (sec) ----------------
TotEng   =     -3396.3677 KinEng   =       631.8747 Temp     =       292.7913 
PotEng   =     -4028.2424 E_bond   =         2.2349 E_angle  =         3.4188 
E_dihed  =         0.0000 E_impro  =         0.0000 E_vdwl   =       811.2667 
E_coul   =     14610.9806 E_long   =    -19456.1435 Press    =       960.1902 
Volume   =     10813.8989 
SHAKE stats (type/ave/delta) on step 920000
  2 0.999984 4.1907e-06
  2 109.47 0.000381546
---------------- Step   920000 ----- CPU =   2509.8292 (sec) ----------------
TotEng   =     -3402.8001 KinEng   =       608.9928 Temp     =       282.1885 
PotEng   =     -4011.7929 E_bond   =         2.5688 E_angle  =         6.4784 
E_dihed  =         0.0000 E_impro  =         0.0000 E_vdwl   =       721.6021 
E_coul   =     14712.1586 E_long   =    -19454.6008 Press    =     -1376.4215 
Volume   =     10775.1513 
SHAKE stats (type/ave/delta) on step 930000
  2 0.999907 1.14584e-05
  2 109.47 0.00102286
---------------- Step   930000 ----- CPU =   2537.7842 (sec) ----------------
TotEng   =     -3339.2685 KinEng   =       644.6091 Temp     =       298.6920 
PotEng   =     -3983.8776 E_bond   =         0.5614 E_angle  =         3.1153 
E_dihed  =         0.0000 E_impro  =         0.0000 E_vdwl   =       812.2487 
E_coul   =     14653.9189 E_long   =    -19453.7220 Press    =      1123.8542 
Volume   =     10703.0640 
SHAKE stats (type/ave/delta) on step 940000
  2 1.00005 3.94869e-06
  2 109.47 0.000352595
---------------- Step   940000 ----- CPU =   2566.5688 (sec) ----------------
TotEng   =     -3388.2746 KinEng   =       643.3266 Temp     =       298.0977 
PotEng   =     -4031.6013 E_bond   =         4.0533 E_angle  =         2.4300 
E_dihed  =         0.0000 E_impro  =         0.0000 E_vdwl   =       780.0556 
E_coul   =     14633.7784 E_long   =    -19451.9185 Press    =      -540.6303 
Volume   =     10999.1783 
SHAKE stats (type/ave/delta) on step 950000
  2 1.00006 5.36371e-06
  2 109.47 0.000516959
---------------- Step   950000 ----- CPU =   2594.6695 (sec) ----------------
TotEng   =     -3344.1164 KinEng   =       675.1830 Temp     =       312.8590 
PotEng   =     -4019.2994 E_bond   =         0.4149 E_angle  =         4.6355 
E_dihed  =         0.0000 E_impro  =         0.0000 E_vdwl   =       790.2033 
E_coul   =     14640.8483 E_long   =    -19455.4015 Press    =       263.3920 
Volume   =     10749.9805 
SHAKE stats (type/ave/delta) on step 960000
  2 1.00005 4.71131e-06
  2 109.47 0.000477123
---------------- Step   960000 ----- CPU =   2622.0694 (sec) ----------------
TotEng   =     -3376.6661 KinEng   =       631.4798 Temp     =       292.6082 
PotEng   =     -4008.1458 E_bond   =         1.6168 E_angle  =         3.8661 
E_dihed  =         0.0000 E_impro  =         0.0000 E_vdwl   =       811.8715 
E_coul   =     14627.5786 E_long   =    -19453.0788 Press    =       873.0661 
Volume   =     10696.1624 
SHAKE stats (type/ave/delta) on step 970000
  2 0.999929 9.45603e-06
  2 109.47 0.000718056
---------------- Step   970000 ----- CPU =   2650.8554 (sec) ----------------
TotEng   =     -3248.5472 KinEng   =       658.6332 Temp     =       305.1903 
PotEng   =     -3907.1804 E_bond   =         2.5368 E_angle  =         4.2877 
E_dihed  =         0.0000 E_impro  =         0.0000 E_vdwl   =       753.8573 
E_coul   =     14785.5071 E_long   =    -19453.3693 Press    =       355.9712 
Volume   =     10912.1436 
SHAKE stats (type/ave/delta) on step 980000
  2 1.00003 5.83061e-06
  2 109.47 0.000627605
---------------- Step   980000 ----- CPU =   2678.6594 (sec) ----------------
TotEng   =     -3394.8003 KinEng   =       653.5221 Temp     =       302.8220 
PotEng   =     -4048.3224 E_bond   =         0.6898 E_angle  =         5.8078 
E_dihed  =         0.0000 E_impro  =         0.0000 E_vdwl   =       781.0511 
E_coul   =     14620.0586 E_long   =    -19455.9298 Press    =      -311.3279 
Volume   =     10903.7447 
SHAKE stats (type/ave/delta) on step 990000
  2 1.00002 6.08841e-06
  2 109.47 0.000581562
---------------- Step   990000 ----- CPU =   2706.1568 (sec) ----------------
TotEng   =     -3371.3087 KinEng   =       649.2016 Temp     =       300.8200 
PotEng   =     -4020.5103 E_bond   =         1.4511 E_angle  =         3.2851 
E_dihed  =         0.0000 E_impro  =         0.0000 E_vdwl   =       784.3471 
E_coul   =     14644.3144 E_long   =    -19453.9079 Press    =       -82.1438 
Volume   =     11021.5855 
SHAKE stats (type/ave/delta) on step 1000000
  2 1 1.40975e-05
  2 109.47 0.000951262
---------------- Step  1000000 ----- CPU =   2732.8567 (sec) ----------------
TotEng   =     -3390.9305 KinEng   =       650.6755 Temp     =       301.5029 
PotEng   =     -4041.6060 E_bond   =         1.7953 E_angle  =         3.7873 
E_dihed  =         0.0000 E_impro  =         0.0000 E_vdwl   =       780.5151 
E_coul   =     14625.2112 E_long   =    -19452.9149 Press    =      -274.4421 
Volume   =     10721.1879 
SHAKE stats (type/ave/delta) on step 1010000
  2 0.99998 5.85787e-06
  2 109.47 0.000495297
---------------- Step  1010000 ----- CPU =   2757.8148 (sec) ----------------
TotEng   =     -3319.9936 KinEng   =       673.9297 Temp     =       312.2783 
PotEng   =     -3993.9233 E_bond   =         0.5195 E_angle  =         1.4843 
E_dihed  =         0.0000 E_impro  =         0.0000 E_vdwl   =       807.8057 
E_coul   =     14649.6838 E_long   =    -19453.4167 Press    =       861.7766 
Volume   =     10902.9175 
SHAKE stats (type/ave/delta) on step 1020000
  2 1.00003 7.31921e-06
  2 109.47 0.000628102
---------------- Step  1020000 ----- CPU =   2782.8003 (sec) ----------------
TotEng   =     -3331.7125 KinEng   =       662.2857 Temp     =       306.8828 
PotEng   =     -3993.9982 E_bond   =         2.1534 E_angle  =         5.1893 
E_dihed  =         0.0000 E_impro  =         0.0000 E_vdwl   =       825.7470 
E_coul   =     14627.5423 E_long   =    -19454.6302 Press    =      1404.7115 
Volume   =     10768.0103 
SHAKE stats (type/ave/delta) on step 1030000
  2 0.999881 1.25697e-05
  2 109.47 0.00122317
---------------- Step  1030000 ----- CPU =   2808.2550 (sec) ----------------
TotEng   =     -3373.7517 KinEng   =       628.4651 Temp     =       291.2114 
PotEng   =     -4002.2168 E_bond   =         3.3852 E_angle  =         2.8949 
E_dihed  =         0.0000 E_impro  =         0.0000 E_vdwl   =       811.0121 
E_coul   =     14634.3414 E_long   =    -19453.8504 Press    =       595.3382 
Volume   =     10833.1802 
SHAKE stats (type/ave/delta) on step 1040000
  2 0.999995 1.24694e-05
  2 109.47 0.00156827
---------------- Step  1040000 ----- CPU =   2833.4992 (sec) ----------------
TotEng   =     -3321.5175 KinEng   =       668.9471 Temp     =       309.9695 
PotEng   =     -3990.4646 E_bond   =         2.4645 E_angle  =         3.4801 
E_dihed  =         0.0000 E_impro  =         0.0000 E_vdwl   =       780.1586 
E_coul   =     14678.9729 E_long   =    -19455.5408 Press    =       244.6591 
Volume   =     10793.6088 
SHAKE stats (type/ave/delta) on step 1050000
  2 0.999975 3.89856e-06
  2 109.47 0.000391558
---------------- Step  1050000 ----- CPU =   2859.4600 (sec) ----------------
TotEng   =     -3323.4826 KinEng   =       641.3604 Temp     =       297.1866 
PotEng   =     -3964.8430 E_bond   =         1.6553 E_angle  =         6.7053 
E_dihed  =         0.0000 E_impro  =         0.0000 E_vdwl   =       739.3421 
E_coul   =     14739.8464 E_long   =    -19452.3921 Press    =      -928.4552 
Volume   =     11252.0054 
SHAKE stats (type/ave/delta) on step 1060000
  2 0.999968 1.01053e-05
  2 109.47 0.00114375
---------------- Step  1060000 ----- CPU =   2887.3072 (sec) ----------------
TotEng   =     -3331.3795 KinEng   =       662.0543 Temp     =       306.7755 
PotEng   =     -3993.4337 E_bond   =         1.7938 E_angle  =         5.9001 
E_dihed  =         0.0000 E_impro  =         0.0000 E_vdwl   =       776.6077 
E_coul   =     14676.8316 E_long   =    -19454.5669 Press    =        37.2569 
Volume   =     10820.2078 
SHAKE stats (type/ave/delta) on step 1070000
  2 1.00003 9.83732e-06
  2 109.47 0.000876874
---------------- Step  1070000 ----- CPU =   2914.7276 (sec) ----------------
TotEng   =     -3332.2923 KinEng   =       635.9069 Temp     =       294.6596 
PotEng   =     -3968.1991 E_bond   =         3.3980 E_angle  =         1.4734 
E_dihed  =         0.0000 E_impro  =         0.0000 E_vdwl   =       797.1169 
E_coul   =     14684.6974 E_long   =    -19454.8847 Press    =       216.5681 
Volume   =     11012.5504 
SHAKE stats (type/ave/delta) on step 1080000
  2 1.00004 8.02626e-06
  2 109.47 0.000689964
---------------- Step  1080000 ----- CPU =   2941.5591 (sec) ----------------
TotEng   =     -3410.6390 KinEng   =       635.6732 Temp     =       294.5513 
PotEng   =     -4046.3121 E_bond   =         3.4393 E_angle  =         4.2282 
E_dihed  =         0.0000 E_impro  =         0.0000 E_vdwl   =       789.0921 
E_coul   =     14609.5305 E_long   =    -19452.6022 Press    =      -295.2077 
Volume   =     10853.1189 
SHAKE stats (type/ave/delta) on step 1090000
  2 1.00009 1.1008e-05
  2 109.47 0.00112874
---------------- Step  1090000 ----- CPU =   2968.3476 (sec) ----------------
TotEng   =     -3341.0935 KinEng   =       668.2142 Temp     =       309.6298 
PotEng   =     -4009.3076 E_bond   =         2.2879 E_angle  =         3.5461 
E_dihed  =         0.0000 E_impro  =         0.0000 E_vdwl   =       757.5698 
E_coul   =     14684.1233 E_long   =    -19456.8348 Press    =      -356.9498 
Volume   =     10687.9219 
SHAKE stats (type/ave/delta) on step 1100000
  2 1.00006 9.72365e-06
  2 109.47 0.000851489
---------------- Step  1100000 ----- CPU =   2995.8182 (sec) ----------------
TotEng   =     -3290.4094 KinEng   =       660.0190 Temp     =       305.8325 
PotEng   =     -3950.4285 E_bond   =         2.6221 E_angle  =         3.6298 
E_dihed  =         0.0000 E_impro  =         0.0000 E_vdwl   =       723.3549 
E_coul   =     14773.5833 E_long   =    -19453.6186 Press    =      -635.9819 
Volume   =     10954.5591 
SHAKE stats (type/ave/delta) on step 1110000
  2 1.00003 5.12367e-06
  2 109.47 0.000477919
---------------- Step  1110000 ----- CPU =   3023.5266 (sec) ----------------
TotEng   =     -3354.5967 KinEng   =       635.3490 Temp     =       294.4011 
PotEng   =     -3989.9457 E_bond   =         5.4592 E_angle  =         2.3320 
E_dihed  =         0.0000 E_impro  =         0.0000 E_vdwl   =       817.4537 
E_coul   =     14637.1881 E_long   =    -19452.3788 Press    =       775.1870 
Volume   =     10725.8824 
SHAKE stats (type/ave/delta) on step 1120000
  2 1 1.52647e-05
  2 109.47 0.000982036
---------------- Step  1120000 ----- CPU =   3051.0156 (sec) ----------------
TotEng   =     -3386.0532 KinEng   =       657.0734 Temp     =       304.4676 
PotEng   =     -4043.1266 E_bond   =         0.7148 E_angle  =         4.1689 
E_dihed  =         0.0000 E_impro  =         0.0000 E_vdwl   =       807.2971 
E_coul   =     14599.4510 E_long   =    -19454.7583 Press    =       722.0516 
Volume   =     10751.0137 
SHAKE stats (type/ave/delta) on step 1130000
  2 1.00002 7.83637e-06
  2 109.47 0.000640172
---------------- Step  1130000 ----- CPU =   3078.5762 (sec) ----------------
TotEng   =     -3307.4448 KinEng   =       688.1925 Temp     =       318.8872 
PotEng   =     -3995.6373 E_bond   =         2.6933 E_angle  =         1.9358 
E_dihed  =         0.0000 E_impro  =         0.0000 E_vdwl   =       744.2719 
E_coul   =     14707.8633 E_long   =    -19452.4016 Press    =      -838.5395 
Volume   =     11128.8187 
SHAKE stats (type/ave/delta) on step 1140000
  2 0.999886 4.88139e-06
  2 109.47 0.000416705
---------------- Step  1140000 ----- CPU =   3105.2974 (sec) ----------------
TotEng   =     -3413.4100 KinEng   =       644.0087 Temp     =       298.4138 
PotEng   =     -4057.4187 E_bond   =         3.2159 E_angle  =         2.2192 
E_dihed  =         0.0000 E_impro  =         0.0000 E_vdwl   =       762.3544 
E_coul   =     14629.4385 E_long   =    -19454.6467 Press    =      -950.6247 
Volume   =     10839.3718 
SHAKE stats (type/ave/delta) on step 1150000
  2 1.00011 9.90083e-06
  2 109.47 0.000906323
---------------- Step  1150000 ----- CPU =   3132.8510 (sec) ----------------
TotEng   =     -3378.3237 KinEng   =       634.0113 Temp     =       293.7813 
PotEng   =     -4012.3350 E_bond   =         0.6062 E_angle  =         2.4056 
E_dihed  =         0.0000 E_impro  =         0.0000 E_vdwl   =       817.1705 
E_coul   =     14621.9615 E_long   =    -19454.4788 Press    =       792.2903 
Volume   =     10748.4882 
SHAKE stats (type/ave/delta) on step 1160000
  2 0.999943 4.36122e-06
  2 109.47 0.000479821
---------------- Step  1160000 ----- CPU =   3160.6075 (sec) ----------------
TotEng   =     -3333.7518 KinEng   =       678.0016 Temp     =       314.1651 
PotEng   =     -4011.7534 E_bond   =         1.2891 E_angle  =         4.0910 
E_dihed  =         0.0000 E_impro  =         0.0000 E_vdwl   =       756.7066 
E_coul   =     14680.1226 E_long   =    -19453.9628 Press    =       -90.5013 
Volume   =     10679.7418 
SHAKE stats (type/ave/delta) on step 1170000
  2 0.999942 6.68542e-06
  2 109.47 0.000551001
---------------- Step  1170000 ----- CPU =   3188.5802 (sec) ----------------
TotEng   =     -3344.2552 KinEng   =       645.4448 Temp     =       299.0792 
PotEng   =     -3989.7000 E_bond   =         2.2777 E_angle  =         1.0668 
E_dihed  =         0.0000 E_impro  =         0.0000 E_vdwl   =       765.2478 
E_coul   =     14693.9176 E_long   =    -19452.2100 Press    =       -74.9364 
Volume   =     10965.9365 
SHAKE stats (type/ave/delta) on step 1180000
  2 0.999975 1.11901e-05
  2 109.47 0.000925594
---------------- Step  1180000 ----- CPU =   3217.2174 (sec) ----------------
TotEng   =     -3383.6284 KinEng   =       626.9770 Temp     =       290.5218 
PotEng   =     -4010.6054 E_bond   =         1.0192 E_angle  =         4.4825 
E_dihed  =         0.0000 E_impro  =         0.0000 E_vdwl   =       822.5743 
E_coul   =     14614.3636 E_long   =    -19453.0450 Press    =       912.2600 
Volume   =     10815.8235 
SHAKE stats (type/ave/delta) on step 1190000
  2 1.00002 5.19397e-06
  2 109.47 0.000429935
---------------- Step  1190000 ----- CPU =   3245.4443 (sec) ----------------
TotEng   =     -3348.3186 KinEng   =       635.9230 Temp     =       294.6671 
PotEng   =     -3984.2416 E_bond   =         4.0097 E_angle  =         1.5735 
E_dihed  =         0.0000 E_impro  =         0.0000 E_vdwl   =       805.2303 
E_coul   =     14657.6130 E_long   =    -19452.6681 Press    =       967.0793 
Volume   =     10773.2885 
SHAKE stats (type/ave/delta) on step 1200000
  2 1.00003 8.32028e-06
  2 109.47 0.000630874
---------------- Step  1200000 ----- CPU =   3273.2054 (sec) ----------------
TotEng   =     -3306.2891 KinEng   =       654.0224 Temp     =       303.0538 
PotEng   =     -3960.3115 E_bond   =         3.0328 E_angle  =         4.2342 
E_dihed  =         0.0000 E_impro  =         0.0000 E_vdwl   =       783.0725 
E_coul   =     14705.1797 E_long   =    -19455.8307 Press    =       224.6155 
Volume   =     11171.5588 
SHAKE stats (type/ave/delta) on step 1210000
  2 1.00001 1.21699e-05
  2 109.47 0.000795932
---------------- Step  1210000 ----- CPU =   3301.1409 (sec) ----------------
TotEng   =     -3307.6466 KinEng   =       667.7671 Temp     =       309.4227 
PotEng   =     -3975.4137 E_bond   =         1.5180 E_angle  =         2.3202 
E_dihed  =         0.0000 E_impro  =         0.0000 E_vdwl   =       744.5519 
E_coul   =     14729.6068 E_long   =    -19453.4106 Press    =      -353.6168 
Volume   =     10925.5758 
SHAKE stats (type/ave/delta) on step 1220000
  2 0.999926 3.50234e-06
  2 109.47 0.000395089
---------------- Step  1220000 ----- CPU =   3327.6838 (sec) ----------------
TotEng   =     -3345.6623 KinEng   =       658.2149 Temp     =       304.9965 
PotEng   =     -4003.8772 E_bond   =         0.9688 E_angle  =         1.8113 
E_dihed  =         0.0000 E_impro  =         0.0000 E_vdwl   =       757.9885 
E_coul   =     14690.7313 E_long   =    -19455.3771 Press    =      -322.0041 
Volume   =     10907.7686 
SHAKE stats (type/ave/delta) on step 1230000
  2 0.999872 4.47792e-06
  2 109.47 0.000619896
---------------- Step  1230000 ----- CPU =   3354.2915 (sec) ----------------
TotEng   =     -3336.1994 KinEng   =       654.3012 Temp     =       303.1830 
PotEng   =     -3990.5006 E_bond   =         4.2414 E_angle  =         1.1898 
E_dihed  =         0.0000 E_impro  =         0.0000 E_vdwl   =       790.9728 
E_coul   =     14666.9169 E_long   =    -19453.8214 Press    =       -44.3794 
Volume   =     10962.6326 
SHAKE stats (type/ave/delta) on step 1240000
  2 0.999946 3.7847e-06
  2 109.47 0.000386943
---------------- Step  1240000 ----- CPU =   3381.1636 (sec) ----------------
TotEng   =     -3345.3759 KinEng   =       639.7581 Temp     =       296.4442 
PotEng   =     -3985.1339 E_bond   =         1.8155 E_angle  =         4.5398 
E_dihed  =         0.0000 E_impro  =         0.0000 E_vdwl   =       737.5015 
E_coul   =     14721.7705 E_long   =    -19450.7613 Press    =      -310.4826 
Volume   =     10712.0081 
SHAKE stats (type/ave/delta) on step 1250000
  2 0.99996 4.67328e-06
  2 109.47 0.000491772
---------------- Step  1250000 ----- CPU =   3408.4507 (sec) ----------------
TotEng   =     -3401.1022 KinEng   =       622.4380 Temp     =       288.4186 
PotEng   =     -4023.5402 E_bond   =         3.4402 E_angle  =         2.2993 
E_dihed  =         0.0000 E_impro  =         0.0000 E_vdwl   =       738.6441 
E_coul   =     14687.7006 E_long   =    -19455.6243 Press    =      -762.5481 
Volume   =     10791.0490 
SHAKE stats (type/ave/delta) on step 1260000
  2 1.0001 7.19668e-06
  2 109.47 0.00068375
---------------- Step  1260000 ----- CPU =   3434.0347 (sec) ----------------
TotEng   =     -3308.2637 KinEng   =       638.4581 Temp     =       295.8418 
PotEng   =     -3946.7219 E_bond   =         0.9930 E_angle  =         2.9434 
E_dihed  =         0.0000 E_impro  =         0.0000 E_vdwl   =       801.5542 
E_coul   =     14700.9817 E_long   =    -19453.1942 Press    =       954.5712 
Volume   =     10919.4488 
SHAKE stats (type/ave/delta) on step 1270000
  2 1.0001 5.38894e-06
  2 109.47 0.000455581
---------------- Step  1270000 ----- CPU =   3459.7156 (sec) ----------------
TotEng   =     -3290.7637 KinEng   =       647.6550 Temp     =       300.1034 
PotEng   =     -3938.4187 E_bond   =         4.2448 E_angle  =         2.0257 
E_dihed  =         0.0000 E_impro  =         0.0000 E_vdwl   =       767.9261 
E_coul   =     14742.4752 E_long   =    -19455.0905 Press    =       283.6532 
Volume   =     10900.5930 
SHAKE stats (type/ave/delta) on step 1280000
  2 0.999964 5.83368e-06
  2 109.47 0.000528956
---------------- Step  1280000 ----- CPU =   3485.7509 (sec) ----------------
TotEng   =     -3350.5607 KinEng   =       608.5525 Temp     =       281.9845 
PotEng   =     -3959.1132 E_bond   =         1.8154 E_angle  =         3.2898 
E_dihed  =         0.0000 E_impro  =         0.0000 E_vdwl   =       782.3433 
E_coul   =     14707.6105 E_long   =    -19454.1722 Press    =       653.4296 
Volume   =     10646.0442 
SHAKE stats (type/ave/delta) on step 1290000
  2 0.999967 9.5922e-06
  2 109.47 0.000772348
---------------- Step  1290000 ----- CPU =   3511.1167 (sec) ----------------
TotEng   =     -3353.5058 KinEng   =       658.2070 Temp     =       304.9928 
PotEng   =     -4011.7129 E_bond   =         3.4995 E_angle  =         1.2098 
E_dihed  =         0.0000 E_impro  =         0.0000 E_vdwl   =       737.9169 
E_coul   =     14702.5672 E_long   =    -19456.9063 Press    =     -1408.9549 
Volume   =     11130.3727 
SHAKE stats (type/ave/delta) on step 1300000
  2 1.00006 3.63165e-06
  2 109.47 0.000366084
---------------- Step  1300000 ----- CPU =   3535.3856 (sec) ----------------
TotEng   =     -3355.4327 KinEng   =       647.4637 Temp     =       300.0147 
PotEng   =     -4002.8964 E_bond   =         3.4982 E_angle  =         2.9001 
E_dihed  =         0.0000 E_impro  =         0.0000 E_vdwl   =       832.1581 
E_coul   =     14613.7741 E_long   =    -19455.2269 Press    =      1135.2194 
Volume   =     10674.5142 
SHAKE stats (type/ave/delta) on step 1310000
  2 1.00003 9.20758e-06
  2 109.47 0.000934013
---------------- Step  1310000 ----- CPU =   3562.7319 (sec) ----------------
TotEng   =     -3397.4482 KinEng   =       652.0633 Temp     =       302.1460 
PotEng   =     -4049.5115 E_bond   =         3.2116 E_angle  =         1.6463 
E_dihed  =         0.0000 E_impro  =         0.0000 E_vdwl   =       782.8321 
E_coul   =     14612.4639 E_long   =    -19449.6654 Press    =      -103.5098 
Volume   =     10768.7657 
SHAKE stats (type/ave/delta) on step 1320000
  2 1.00003 7.8591e-06
  2 109.47 0.000675097
---------------- Step  1320000 ----- CPU =   3590.3409 (sec) ----------------
TotEng   =     -3352.2968 KinEng   =       640.6277 Temp     =       296.8471 
PotEng   =     -3992.9244 E_bond   =         1.0325 E_angle  =         3.1341 
E_dihed  =         0.0000 E_impro  =         0.0000 E_vdwl   =       797.1342 
E_coul   =     14661.7798 E_long   =    -19456.0050 Press    =       185.1956 
Volume   =     11061.0476 
SHAKE stats (type/ave/delta) on step 1330000
  2 1.00019 5.6036e-06
  2 109.47 0.000430776
---------------- Step  1330000 ----- CPU =   3618.0092 (sec) ----------------
TotEng   =     -3357.6493 KinEng   =       624.7642 Temp     =       289.4965 
PotEng   =     -3982.4135 E_bond   =         2.4363 E_angle  =         2.9328 
E_dihed  =         0.0000 E_impro  =         0.0000 E_vdwl   =       821.4932 
E_coul   =     14643.0428 E_long   =    -19452.3186 Press    =      1187.2581 
Volume   =     10741.0675 
SHAKE stats (type/ave/delta) on step 1340000
  2 0.999979 6.61332e-06
  2 109.47 0.000568649
---------------- Step  1340000 ----- CPU =   3645.3195 (sec) ----------------
TotEng   =     -3436.3363 KinEng   =       587.1767 Temp     =       272.0796 
[...]
E_coul   =     14719.4312 E_long   =    -19454.4733 Press    =       -92.4840 
Volume   =     10984.3551 
SHAKE stats (type/ave/delta) on step 4650000
  2 1.00003 7.40669e-06
  2 109.47 0.000514492
---------------- Step  4650000 ----- CPU =  12657.6302 (sec) ----------------
TotEng   =     -3392.1141 KinEng   =       597.8596 Temp     =       277.0297 
PotEng   =     -3989.9737 E_bond   =         0.5844 E_angle  =         0.5038 
E_dihed  =         0.0000 E_impro  =         0.0000 E_vdwl   =       732.5105 
E_coul   =     14730.8631 E_long   =    -19454.4355 Press    =      -648.1997 
Volume   =     10828.1630 
SHAKE stats (type/ave/delta) on step 4660000
  2 0.999929 4.08571e-06
  2 109.47 0.000360697
---------------- Step  4660000 ----- CPU =  12684.6845 (sec) ----------------
TotEng   =     -3320.4150 KinEng   =       664.3687 Temp     =       307.8480 
PotEng   =     -3984.7838 E_bond   =         0.3299 E_angle  =         0.6737 
E_dihed  =         0.0000 E_impro  =         0.0000 E_vdwl   =       705.7941 
E_coul   =     14759.6240 E_long   =    -19451.2054 Press    =     -1189.7859 
Volume   =     10904.8045 
SHAKE stats (type/ave/delta) on step 4670000
  2 0.999965 6.05146e-06
  2 109.47 0.000630612
---------------- Step  4670000 ----- CPU =  12712.6868 (sec) ----------------
TotEng   =     -3324.9236 KinEng   =       634.2907 Temp     =       293.9108 
PotEng   =     -3959.2143 E_bond   =         2.4383 E_angle  =         0.9623 
E_dihed  =         0.0000 E_impro  =         0.0000 E_vdwl   =       742.9293 
E_coul   =     14746.2946 E_long   =    -19451.8388 Press    =      -162.2041 
Volume   =     11057.7718 
SHAKE stats (type/ave/delta) on step 4680000
  2 0.999899 6.2597e-06
  2 109.47 0.000562081
---------------- Step  4680000 ----- CPU =  12740.5100 (sec) ----------------
TotEng   =     -3352.1222 KinEng   =       643.8118 Temp     =       298.3225 
PotEng   =     -3995.9340 E_bond   =         1.0541 E_angle  =         0.9880 
E_dihed  =         0.0000 E_impro  =         0.0000 E_vdwl   =       854.8193 
E_coul   =     14602.1749 E_long   =    -19454.9704 Press    =      1681.2279 
Volume   =     10982.2553 
SHAKE stats (type/ave/delta) on step 4690000
  2 1.00002 4.63316e-06
  2 109.47 0.00041446
---------------- Step  4690000 ----- CPU =  12767.9962 (sec) ----------------
TotEng   =     -3376.3410 KinEng   =       643.0015 Temp     =       297.9471 
PotEng   =     -4019.3425 E_bond   =         1.1723 E_angle  =         1.6210 
E_dihed  =         0.0000 E_impro  =         0.0000 E_vdwl   =       757.2672 
E_coul   =     14675.2890 E_long   =    -19454.6920 Press    =       -83.1421 
Volume   =     10682.2897 
SHAKE stats (type/ave/delta) on step 4700000
  2 0.999946 7.59405e-06
  2 109.47 0.00082001
---------------- Step  4700000 ----- CPU =  12795.9644 (sec) ----------------
TotEng   =     -3289.8090 KinEng   =       674.1022 Temp     =       312.3582 
PotEng   =     -3963.9112 E_bond   =         1.3930 E_angle  =         1.7706 
E_dihed  =         0.0000 E_impro  =         0.0000 E_vdwl   =       762.7810 
E_coul   =     14721.0128 E_long   =    -19450.8686 Press    =       109.7610 
Volume   =     10909.6839 
SHAKE stats (type/ave/delta) on step 4710000
  2 0.99996 1.06932e-05
  2 109.47 0.000705798
---------------- Step  4710000 ----- CPU =  12825.0086 (sec) ----------------
TotEng   =     -3271.5900 KinEng   =       657.6784 Temp     =       304.7479 
PotEng   =     -3929.2684 E_bond   =         1.7647 E_angle  =         3.3465 
E_dihed  =         0.0000 E_impro  =         0.0000 E_vdwl   =       730.9578 
E_coul   =     14787.2640 E_long   =    -19452.6014 Press    =      -206.4046 
Volume   =     10980.4267 
SHAKE stats (type/ave/delta) on step 4720000
  2 1.00007 6.45094e-06
  2 109.47 0.000484103
---------------- Step  4720000 ----- CPU =  12852.6491 (sec) ----------------
TotEng   =     -3376.2658 KinEng   =       625.8122 Temp     =       289.9821 
PotEng   =     -4002.0780 E_bond   =         2.0924 E_angle  =         2.2840 
E_dihed  =         0.0000 E_impro  =         0.0000 E_vdwl   =       720.4807 
E_coul   =     14727.4851 E_long   =    -19454.4203 Press    =     -1527.5069 
Volume   =     11175.4894 
SHAKE stats (type/ave/delta) on step 4730000
  2 0.999862 7.40079e-06
  2 109.47 0.000602372
---------------- Step  4730000 ----- CPU =  12880.9416 (sec) ----------------
TotEng   =     -3317.9686 KinEng   =       634.1202 Temp     =       293.8318 
PotEng   =     -3952.0888 E_bond   =         2.5734 E_angle  =         1.7971 
E_dihed  =         0.0000 E_impro  =         0.0000 E_vdwl   =       744.7583 
E_coul   =     14753.3888 E_long   =    -19454.6064 Press    =      -591.3494 
Volume   =     11253.7227 
SHAKE stats (type/ave/delta) on step 4740000
  2 1.00001 7.88669e-06
  2 109.47 0.000736019
---------------- Step  4740000 ----- CPU =  12909.0143 (sec) ----------------
TotEng   =     -3328.3869 KinEng   =       641.2462 Temp     =       297.1337 
PotEng   =     -3969.6331 E_bond   =         4.4473 E_angle  =         1.2294 
E_dihed  =         0.0000 E_impro  =         0.0000 E_vdwl   =       722.0776 
E_coul   =     14755.8554 E_long   =    -19453.2428 Press    =      -935.8848 
Volume   =     10995.5105 
SHAKE stats (type/ave/delta) on step 4750000
  2 1 3.92417e-06
  2 109.47 0.000359941
---------------- Step  4750000 ----- CPU =  12936.7484 (sec) ----------------
TotEng   =     -3405.4844 KinEng   =       621.7240 Temp     =       288.0877 
PotEng   =     -4027.2084 E_bond   =         3.4519 E_angle  =         2.1261 
E_dihed  =         0.0000 E_impro  =         0.0000 E_vdwl   =       789.4703 
E_coul   =     14633.8687 E_long   =    -19456.1254 Press    =       393.5405 
Volume   =     10733.2479 
SHAKE stats (type/ave/delta) on step 4760000
  2 1.00003 3.89711e-06
  2 109.47 0.000361502
---------------- Step  4760000 ----- CPU =  12961.8233 (sec) ----------------
TotEng   =     -3332.0508 KinEng   =       636.5465 Temp     =       294.9560 
PotEng   =     -3968.5973 E_bond   =         1.8547 E_angle  =         1.1179 
E_dihed  =         0.0000 E_impro  =         0.0000 E_vdwl   =       738.0342 
E_coul   =     14745.0477 E_long   =    -19454.6519 Press    =      -460.4060 
Volume   =     10929.1399 
SHAKE stats (type/ave/delta) on step 4770000
  2 1.00007 3.72125e-06
  2 109.47 0.000354354
---------------- Step  4770000 ----- CPU =  12987.0118 (sec) ----------------
TotEng   =     -3388.7227 KinEng   =       637.6410 Temp     =       295.4632 
PotEng   =     -4026.3637 E_bond   =         1.0570 E_angle  =         0.8174 
E_dihed  =         0.0000 E_impro  =         0.0000 E_vdwl   =       794.7321 
E_coul   =     14629.5857 E_long   =    -19452.5558 Press    =       101.7031 
Volume   =     11014.2678 
SHAKE stats (type/ave/delta) on step 4780000
  2 1.00002 7.7945e-06
  2 109.47 0.000814143
---------------- Step  4780000 ----- CPU =  13012.7883 (sec) ----------------
TotEng   =     -3254.8997 KinEng   =       687.6017 Temp     =       318.6134 
PotEng   =     -3942.5014 E_bond   =         2.1949 E_angle  =         1.8522 
E_dihed  =         0.0000 E_impro  =         0.0000 E_vdwl   =       761.3742 
E_coul   =     14745.8952 E_long   =    -19453.8180 Press    =        36.2254 
Volume   =     11099.9729 
SHAKE stats (type/ave/delta) on step 4790000
  2 0.99997 6.02598e-06
  2 109.47 0.000731032
---------------- Step  4790000 ----- CPU =  13038.0124 (sec) ----------------
TotEng   =     -3343.8396 KinEng   =       662.6356 Temp     =       307.0449 
PotEng   =     -4006.4752 E_bond   =         5.1879 E_angle  =         1.4137 
E_dihed  =         0.0000 E_impro  =         0.0000 E_vdwl   =       801.4567 
E_coul   =     14640.3765 E_long   =    -19454.9100 Press    =        77.1587 
Volume   =     11138.2407 
SHAKE stats (type/ave/delta) on step 4800000
  2 0.999899 1.0016e-05
  2 109.47 0.00121912
---------------- Step  4800000 ----- CPU =  13063.7763 (sec) ----------------
TotEng   =     -3385.2958 KinEng   =       598.9789 Temp     =       277.5483 
PotEng   =     -3984.2747 E_bond   =         4.1301 E_angle  =         4.2320 
E_dihed  =         0.0000 E_impro  =         0.0000 E_vdwl   =       799.5180 
E_coul   =     14661.6118 E_long   =    -19453.7667 Press    =       118.6334 
Volume   =     11016.5875 
SHAKE stats (type/ave/delta) on step 4810000
  2 0.999966 5.48309e-06
  2 109.47 0.000586909
---------------- Step  4810000 ----- CPU =  13091.7712 (sec) ----------------
TotEng   =     -3354.2456 KinEng   =       623.8870 Temp     =       289.0900 
PotEng   =     -3978.1326 E_bond   =         1.3294 E_angle  =         3.3201 
E_dihed  =         0.0000 E_impro  =         0.0000 E_vdwl   =       725.5747 
E_coul   =     14744.5562 E_long   =    -19452.9131 Press    =      -761.7794 
Volume   =     10913.6685 
SHAKE stats (type/ave/delta) on step 4820000
  2 0.999956 3.92257e-06
  2 109.47 0.000373181
---------------- Step  4820000 ----- CPU =  13119.9353 (sec) ----------------
TotEng   =     -3362.5428 KinEng   =       633.7180 Temp     =       293.6454 
PotEng   =     -3996.2607 E_bond   =         1.3447 E_angle  =         2.2241 
E_dihed  =         0.0000 E_impro  =         0.0000 E_vdwl   =       802.7002 
E_coul   =     14652.0236 E_long   =    -19454.5533 Press    =       668.0895 
Volume   =     10861.1638 
SHAKE stats (type/ave/delta) on step 4830000
  2 0.999986 6.82329e-06
  2 109.47 0.000673337
---------------- Step  4830000 ----- CPU =  13147.7725 (sec) ----------------
TotEng   =     -3274.0242 KinEng   =       655.2592 Temp     =       303.6269 
PotEng   =     -3929.2834 E_bond   =         2.3644 E_angle  =         1.9230 
E_dihed  =         0.0000 E_impro  =         0.0000 E_vdwl   =       747.7013 
E_coul   =     14770.5048 E_long   =    -19451.7768 Press    =       161.5134 
Volume   =     10903.0007 
SHAKE stats (type/ave/delta) on step 4840000
  2 1.00009 1.30745e-05
  2 109.47 0.0013212
---------------- Step  4840000 ----- CPU =  13175.7905 (sec) ----------------
TotEng   =     -3273.5032 KinEng   =       661.9155 Temp     =       306.7112 
PotEng   =     -3935.4186 E_bond   =         1.3554 E_angle  =         3.4186 
E_dihed  =         0.0000 E_impro  =         0.0000 E_vdwl   =       827.0893 
E_coul   =     14687.6932 E_long   =    -19454.9752 Press    =      1579.0638 
Volume   =     10968.0464 
SHAKE stats (type/ave/delta) on step 4850000
  2 0.999983 3.68254e-06
  2 109.47 0.000379912
---------------- Step  4850000 ----- CPU =  13202.8586 (sec) ----------------
TotEng   =     -3397.6787 KinEng   =       648.3215 Temp     =       300.4122 
PotEng   =     -4046.0002 E_bond   =         2.3797 E_angle  =         1.8764 
E_dihed  =         0.0000 E_impro  =         0.0000 E_vdwl   =       816.7540 
E_coul   =     14586.6220 E_long   =    -19453.6323 Press    =       901.1485 
Volume   =     10739.0880 
SHAKE stats (type/ave/delta) on step 4860000
  2 0.999983 1.28992e-05
  2 109.47 0.000910735
---------------- Step  4860000 ----- CPU =  13231.0311 (sec) ----------------
TotEng   =     -3337.0527 KinEng   =       632.6595 Temp     =       293.1549 
PotEng   =     -3969.7123 E_bond   =         1.9085 E_angle  =         0.9570 
E_dihed  =         0.0000 E_impro  =         0.0000 E_vdwl   =       760.1216 
E_coul   =     14721.5586 E_long   =    -19454.2579 Press    =      -300.9701 
Volume   =     11018.7302 
SHAKE stats (type/ave/delta) on step 4870000
  2 0.999958 1.29829e-05
  2 109.47 0.0011251
---------------- Step  4870000 ----- CPU =  13259.6489 (sec) ----------------
TotEng   =     -3388.2350 KinEng   =       609.0585 Temp     =       282.2189 
PotEng   =     -3997.2935 E_bond   =         0.7474 E_angle  =         1.7523 
E_dihed  =         0.0000 E_impro  =         0.0000 E_vdwl   =       771.8875 
E_coul   =     14682.1158 E_long   =    -19453.7964 Press    =      -122.3176 
Volume   =     10913.6483 
SHAKE stats (type/ave/delta) on step 4880000
  2 0.999934 4.02039e-06
  2 109.47 0.000365544
---------------- Step  4880000 ----- CPU =  13287.7242 (sec) ----------------
TotEng   =     -3305.3955 KinEng   =       648.0723 Temp     =       300.2967 
PotEng   =     -3953.4678 E_bond   =         3.2031 E_angle  =         0.6362 
E_dihed  =         0.0000 E_impro  =         0.0000 E_vdwl   =       700.0807 
E_coul   =     14794.6486 E_long   =    -19452.0365 Press    =     -1464.9602 
Volume   =     11343.7377 
SHAKE stats (type/ave/delta) on step 4890000
  2 0.999909 6.18286e-06
  2 109.47 0.000535508
---------------- Step  4890000 ----- CPU =  13315.1821 (sec) ----------------
TotEng   =     -3351.7262 KinEng   =       670.9024 Temp     =       310.8755 
PotEng   =     -4022.6286 E_bond   =         1.6120 E_angle  =         1.0386 
E_dihed  =         0.0000 E_impro  =         0.0000 E_vdwl   =       801.4322 
E_coul   =     14627.7998 E_long   =    -19454.5112 Press    =       312.5174 
Volume   =     10999.4477 
SHAKE stats (type/ave/delta) on step 4900000
  2 0.999946 1.19332e-05
  2 109.47 0.00115085
---------------- Step  4900000 ----- CPU =  13342.7491 (sec) ----------------
TotEng   =     -3348.7990 KinEng   =       644.4083 Temp     =       298.5989 
PotEng   =     -3993.2073 E_bond   =         0.9179 E_angle  =         0.5373 
E_dihed  =         0.0000 E_impro  =         0.0000 E_vdwl   =       753.5025 
E_coul   =     14706.1936 E_long   =    -19454.3586 Press    =      -368.9292 
Volume   =     11110.2421 
SHAKE stats (type/ave/delta) on step 4910000
  2 0.999838 5.53392e-06
  2 109.47 0.000520888
---------------- Step  4910000 ----- CPU =  13370.8073 (sec) ----------------
TotEng   =     -3296.4065 KinEng   =       661.4753 Temp     =       306.5073 
PotEng   =     -3957.8818 E_bond   =         0.8614 E_angle  =         1.1732 
E_dihed  =         0.0000 E_impro  =         0.0000 E_vdwl   =       777.3328 
E_coul   =     14716.4293 E_long   =    -19453.6786 Press    =       659.5996 
Volume   =     10777.5180 
SHAKE stats (type/ave/delta) on step 4920000
  2 1.00004 3.50767e-06
  2 109.47 0.000371349
---------------- Step  4920000 ----- CPU =  13398.0178 (sec) ----------------
TotEng   =     -3270.5890 KinEng   =       672.7726 Temp     =       311.7421 
PotEng   =     -3943.3616 E_bond   =         2.1104 E_angle  =         1.1375 
E_dihed  =         0.0000 E_impro  =         0.0000 E_vdwl   =       785.2387 
E_coul   =     14722.4751 E_long   =    -19454.3233 Press    =       802.6657 
Volume   =     10925.9051 
SHAKE stats (type/ave/delta) on step 4930000
  2 0.999907 4.95668e-06
  2 109.47 0.000436528
---------------- Step  4930000 ----- CPU =  13426.0999 (sec) ----------------
TotEng   =     -3332.9457 KinEng   =       660.4845 Temp     =       306.0482 
PotEng   =     -3993.4303 E_bond   =         2.4754 E_angle  =         1.5358 
E_dihed  =         0.0000 E_impro  =         0.0000 E_vdwl   =       711.2425 
E_coul   =     14747.4849 E_long   =    -19456.1688 Press    =     -1435.8799 
Volume   =     11035.8037 
SHAKE stats (type/ave/delta) on step 4940000
  2 0.999908 4.57453e-06
  2 109.47 0.000362254
---------------- Step  4940000 ----- CPU =  13453.2947 (sec) ----------------
TotEng   =     -3341.8063 KinEng   =       643.3493 Temp     =       298.1082 
PotEng   =     -3985.1556 E_bond   =         2.3329 E_angle  =         2.6362 
E_dihed  =         0.0000 E_impro  =         0.0000 E_vdwl   =       851.2243 
E_coul   =     14614.1435 E_long   =    -19455.4926 Press    =      1513.6875 
Volume   =     10940.9276 
SHAKE stats (type/ave/delta) on step 4950000
  2 1.00007 8.70393e-06
  2 109.47 0.000913594
---------------- Step  4950000 ----- CPU =  13481.7088 (sec) ----------------
TotEng   =     -3331.0983 KinEng   =       664.5736 Temp     =       307.9429 
PotEng   =     -3995.6720 E_bond   =         2.0686 E_angle  =         2.1667 
E_dihed  =         0.0000 E_impro  =         0.0000 E_vdwl   =       817.5687 
E_coul   =     14634.2846 E_long   =    -19451.7607 Press    =       871.9486 
Volume   =     11035.6716 
SHAKE stats (type/ave/delta) on step 4960000
  2 1.00011 4.90926e-06
  2 109.47 0.00046038
---------------- Step  4960000 ----- CPU =  13509.7885 (sec) ----------------
TotEng   =     -3364.3893 KinEng   =       604.8517 Temp     =       280.2696 
PotEng   =     -3969.2410 E_bond   =         0.8460 E_angle  =         1.5056 
E_dihed  =         0.0000 E_impro  =         0.0000 E_vdwl   =       718.9712 
E_coul   =     14762.3072 E_long   =    -19452.8710 Press    =      -905.7288 
Volume   =     11042.0829 
SHAKE stats (type/ave/delta) on step 4970000
  2 1.00004 9.84465e-06
  2 109.47 0.000630855
---------------- Step  4970000 ----- CPU =  13537.7319 (sec) ----------------
TotEng   =     -3347.6874 KinEng   =       625.8286 Temp     =       289.9897 
PotEng   =     -3973.5160 E_bond   =         1.0687 E_angle  =         3.0780 
E_dihed  =         0.0000 E_impro  =         0.0000 E_vdwl   =       772.8709 
E_coul   =     14701.8267 E_long   =    -19452.3603 Press    =        85.1823 
Volume   =     10893.5207 
SHAKE stats (type/ave/delta) on step 4980000
  2 1.00016 3.86387e-06
  2 109.47 0.000360059
---------------- Step  4980000 ----- CPU =  13565.2183 (sec) ----------------
TotEng   =     -3352.1160 KinEng   =       645.4411 Temp     =       299.0775 
PotEng   =     -3997.5572 E_bond   =         0.6412 E_angle  =         3.7969 
E_dihed  =         0.0000 E_impro  =         0.0000 E_vdwl   =       733.4452 
E_coul   =     14720.0436 E_long   =    -19455.4841 Press    =      -868.1027 
Volume   =     11201.7564 
SHAKE stats (type/ave/delta) on step 4990000
  2 1.00001 9.24316e-06
  2 109.47 0.000696753
---------------- Step  4990000 ----- CPU =  13593.6029 (sec) ----------------
TotEng   =     -3402.5718 KinEng   =       617.5697 Temp     =       286.1627 
PotEng   =     -4020.1415 E_bond   =         0.1605 E_angle  =         2.9461 
E_dihed  =         0.0000 E_impro  =         0.0000 E_vdwl   =       806.9551 
E_coul   =     14625.0755 E_long   =    -19455.2786 Press    =       562.2029 
Volume   =     10861.0903 
SHAKE stats (type/ave/delta) on step 5000000
  2 0.999899 1.01127e-05
  2 109.47 0.000991054
---------------- Step  5000000 ----- CPU =  13621.1439 (sec) ----------------
TotEng   =     -3387.2076 KinEng   =       614.8144 Temp     =       284.8860 
PotEng   =     -4002.0220 E_bond   =         1.0414 E_angle  =         2.2303 
E_dihed  =         0.0000 E_impro  =         0.0000 E_vdwl   =       748.3029 
E_coul   =     14697.8964 E_long   =    -19451.4931 Press    =      -886.2992 
Volume   =     11174.9080 
Loop time of 13621.1 on 8 procs for 5000000 steps with 1085 atoms

Pair  time (%) = 7188.86 (52.7772)
Bond  time (%) = 3.21011 (0.0235671)
Kspce time (%) = 2486.84 (18.2572)
Neigh time (%) = 965.825 (7.09063)
Comm  time (%) = 1265.83 (9.2931)
Outpt time (%) = 0.222712 (0.00163505)
Other time (%) = 1710.36 (12.5567)

FFT time (% of Kspce) = 324.314 (13.0412)
FFT Gflps 3d (1d only) = 3.97201 52.6151

Nlocal:    135.625 ave 144 max 122 min
Histogram: 1 0 0 0 0 2 2 2 0 1
Nghost:    4081.75 ave 4132 max 4010 min
Histogram: 1 0 1 0 0 1 2 1 1 1
Neighs:    47495 ave 51549 max 39760 min
Histogram: 1 0 0 0 1 2 0 1 1 2

Total # of neighbors = 379960
Ave neighs/atom = 350.194
Ave special neighs/atom = 2.00922
Neighbor list builds = 411731
Dangerous builds = 65000

write_restart restart.*.lmp
PPPM initialization ...
  G vector (1/distance) = 0.266979
  grid = 12 12 12
  stencil order = 5
  estimated absolute RMS force accuracy = 0.0265858
  estimated relative force accuracy = 8.00625e-05
  using double precision FFTs
  3d grid and FFT values/proc = 2197 288
write_data data.*.lmp
PPPM initialization ...
  G vector (1/distance) = 0.266979
  grid = 12 12 12
  stencil order = 5
  estimated absolute RMS force accuracy = 0.0265858
  estimated relative force accuracy = 8.00625e-05
  using double precision FFTs
  3d grid and FFT values/proc = 2197 288
