LAMMPS data file via write_data, version 11 Nov 2013, timestep = 500000

1085 atoms
4 atom types
724 bonds
2 bond types
366 angles
2 angle types

-1.1123502490247398e+01 1.1123502490247398e+01 xlo xhi
-1.1123502490247398e+01 1.1123502490247398e+01 ylo yhi
-1.1123502490247398e+01 1.1123502490247398e+01 zlo zhi

Masses

1 12.011
2 1.008
3 1.008
4 15.999

Bond Coeffs

1 340 1.09
2 517.6 1

Angle Coeffs

1 33 107.8
2 37.95 109.47

Atoms

338 112 3 4.2399999999999999e-01 -5.2284098218906347e+00 -9.6649977579161863e+00 -7.5534665208697529e+00 0 3 0
327 109 3 4.2399999999999999e-01 -2.6639881865878952e+00 -6.5881926137460169e+00 -1.0345405166272144e+01 -1 3 0
676 225 4 -8.4799999999999998e-01 -5.4370189823740356e+00 -2.4278022570259257e+00 -2.8989508478370105e+00 0 0 -1
871 290 4 -8.4799999999999998e-01 -5.5103533580243456e+00 -5.1732803493246919e+00 -2.4314768509028397e+00 2 0 -1
553 184 4 -8.4799999999999998e-01 -5.8194687704670534e+00 -3.2983314890540019e+00 -1.0644013169542127e+01 -1 1 0
491 163 3 4.2399999999999999e-01 -1.0814453694469774e+01 -7.4129662222400352e+00 -8.7777652423209727e+00 1 3 0
749 249 3 4.2399999999999999e-01 -3.7262052681891777e+00 -9.9184636392438161e+00 -9.6399713309531521e-01 -1 -1 -1
192 64 3 4.2399999999999999e-01 -3.0293008937380712e+00 -1.0928202796038324e+01 -6.8169034257426011e+00 1 3 0
341 113 3 4.2399999999999999e-01 -6.7468050906243402e+00 -7.4668006055694427e+00 -9.8377781835230227e+00 -2 0 -2
802 267 4 -8.4799999999999998e-01 -8.0543627383119087e-01 -6.3469059634548781e+00 -1.8210122546153134e+00 1 -2 -1
10 3 4 -8.4799999999999998e-01 -1.6885056842100425e+00 -2.1474723154475708e+00 -3.0991096152890769e+00 1 -1 0
796 265 4 -8.4799999999999998e-01 -9.5040461654637127e+00 -4.2808082656716238e+00 -7.7710604522015014e+00 -2 0 0
318 106 3 4.2399999999999999e-01 -2.6673878731400791e-01 -3.1898827749694485e+00 -2.5406807757857184e+00 -1 2 -4
336 112 3 4.2399999999999999e-01 -5.9169742291696386e+00 -1.0782994638476350e+01 -8.5242825206895532e+00 0 3 0
269 89 3 4.2399999999999999e-01 -8.6272540692705064e+00 -4.7905716604855444e+00 -2.1190240426569922e+00 -1 0 0
89 29 3 4.2399999999999999e-01 -8.0345174757940647e+00 -2.8469019645950766e+00 -5.2377670254230999e+00 -1 -1 0
702 234 3 4.2399999999999999e-01 -9.0842369667062961e+00 -3.4794166553619261e+00 -9.2303436948798154e+00 1 1 -1
36 12 3 4.2399999999999999e-01 -8.5374446299242397e+00 -8.0220757624972947e+00 -2.2819366303030328e+00 0 1 -1
238 79 4 -8.4799999999999998e-01 -7.5269522015505501e+00 -1.1076712861349510e+01 -5.6872225202221669e+00 2 3 3
870 290 3 4.2399999999999999e-01 -6.1326007997303789e+00 -4.9498334990453223e+00 -1.6812440143268645e+00 2 0 -1
865 288 4 -8.4799999999999998e-01 -8.4126969526080657e+00 -9.7347435125106685e+00 -1.0423257737707782e+01 -1 0 2
747 249 3 4.2399999999999999e-01 -2.2352718018477002e+00 -1.0549465237346595e+01 -1.1772453965351311e+00 -1 -1 -1
852 284 3 4.2399999999999999e-01 -7.2680521142022627e+00 -1.5598786968759768e+00 -4.8385322601786385e-01 1 1 -3
11 3 3 4.2399999999999999e-01 -2.3363477146009366e+00 -2.0989424980757594e+00 -2.3389034547395795e+00 1 -1 0
179 59 3 4.2399999999999999e-01 -3.3985492325292439e+00 -5.2923818769206781e+00 -8.7371267684840994e+00 2 -1 -1
675 225 3 4.2399999999999999e-01 -5.3745248174020404e+00 -3.4054897980772498e+00 -3.0994177552206956e+00 0 0 -1
866 288 3 4.2399999999999999e-01 -7.8752879731886356e+00 -1.0569477745270964e+01 -1.0543151349472259e+01 -1 0 2
948 316 3 4.2399999999999999e-01 -5.1735441440582175e+00 -4.7481272261054528e+00 -5.9565517117270943e+00 -2 1 -1
38 12 3 4.2399999999999999e-01 -7.9752220311381716e+00 -9.4830493322535094e+00 -2.7466942213059422e+00 0 1 -1
178 59 4 -8.4799999999999998e-01 -4.1000331954730811e+00 -4.5841889429336282e+00 -8.8168206174413317e+00 2 -1 -1
795 265 3 4.2399999999999999e-01 -1.0046518935192042e+01 -5.1142710756139564e+00 -7.8760814385214388e+00 -2 0 0
133 44 4 -8.4799999999999998e-01 -4.4032748920746467e+00 -8.1125769256763185e+00 -7.7704951310859123e+00 1 2 -3
569 189 3 4.2399999999999999e-01 -7.9568823285184642e+00 -2.2847912916764734e-01 -5.7725484091975803e+00 1 1 1
976 325 4 -8.4799999999999998e-01 -4.2441484136251360e+00 -1.0654796687787794e+01 -5.1949346785489423e+00 1 1 1
74 24 3 4.2399999999999999e-01 -1.0819030062751564e+01 -1.0167202542862812e+01 -6.0826741693098052e+00 -1 2 -1
658 219 4 -8.4799999999999998e-01 -4.8339668845131776e+00 -1.7396073297079102e+00 -7.7896644718974839e+00 2 1 2
406 135 4 -8.4799999999999998e-01 -6.5641880180267691e+00 -6.7245506144432516e+00 -4.4732730017475912e+00 2 0 -1
704 234 3 4.2399999999999999e-01 -7.8182210605046478e+00 -3.1497236419890839e+00 -1.0207599629328154e+01 1 1 -1
748 249 4 -8.4799999999999998e-01 -3.1666528874093647e+00 -1.0741672358092480e+01 -8.6813628686811306e-01 -1 -1 -1
903 301 3 4.2399999999999999e-01 -8.3846741326325720e+00 -1.9853583694624124e+00 -2.1561438985945394e+00 1 0 -2
155 51 3 4.2399999999999999e-01 -1.9443173314295255e+00 -1.4784502179283088e+00 -8.6460713960128786e+00 -1 0 1
977 325 3 4.2399999999999999e-01 -3.9882590631386865e+00 -9.8315891307852503e+00 -4.6881624067748264e+00 1 1 1
567 189 3 4.2399999999999999e-01 -9.5444912529427093e+00 -6.0585066747104044e-01 -5.8326213010012511e+00 1 1 1
329 109 3 4.2399999999999999e-01 -2.0188091259054755e+00 -7.1623990186434838e+00 -8.9595655166777064e+00 -1 3 0
107 35 3 4.2399999999999999e-01 -2.2375099948297255e+00 -3.8525771048125099e+00 -3.6538674343324384e+00 2 0 -2
272 90 3 4.2399999999999999e-01 -8.9804822638134141e-01 -8.7549049890828634e+00 -5.1526630364209467e+00 -3 -2 0
529 176 4 -8.4799999999999998e-01 -5.4717639247049910e-01 -1.0471845221614991e+01 -2.2401500324888186e+00 -2 1 1
738 246 3 4.2399999999999999e-01 -2.0373874999865418e+00 -6.1566316430246042e+00 -4.1155010930593630e+00 -1 1 0
918 306 3 4.2399999999999999e-01 -8.0492928618372925e+00 -1.1094871030097213e+00 -7.6933952101684966e+00 2 0 0
905 301 3 4.2399999999999999e-01 -6.9586062005507996e+00 -1.4326417951184283e+00 -2.7283037280982914e+00 1 0 -2
37 12 4 -8.4799999999999998e-01 -8.3669156065583046e+00 -8.6198646495459919e+00 -3.0652200528040083e+00 0 1 -1
588 196 3 4.2399999999999999e-01 -4.1017865757798386e+00 -7.3506611256511611e+00 -4.4320865422828426e-01 0 -1 -2
635 211 3 4.2399999999999999e-01 -1.0324516885252821e+01 -9.6929386779334443e+00 -8.6493876613390697e-02 1 1 -2
393 131 3 4.2399999999999999e-01 -9.4919725072560013e+00 -6.1821640781611364e-01 -2.9554839252489380e+00 -1 3 -1
703 234 4 -8.4799999999999998e-01 -8.7325496460732790e+00 -3.5522512214367818e+00 -1.0163602845034310e+01 1 1 -1
920 306 3 4.2399999999999999e-01 -6.4861470954544762e+00 -1.3083576225196332e+00 -8.1218194128940127e+00 2 0 0
686 228 3 4.2399999999999999e-01 -6.8170860711010226e+00 -6.0570717717327671e+00 -7.7127466066180226e+00 0 3 0
73 24 4 -8.4799999999999998e-01 -1.0653129516167636e+01 -1.0636954609655435e+01 -6.9497220495624967e+00 -1 2 -1
364 121 4 -8.4799999999999998e-01 -8.4636201493443366e+00 -6.8117453609326333e+00 -9.1701574152472887e-01 2 3 -3
803 267 3 4.2399999999999999e-01 -1.3168277364118737e+00 -6.7303892499372031e+00 -2.5900288701302827e+00 1 -2 -1
919 306 4 -8.4799999999999998e-01 -7.4236125482982871e+00 -1.2383394986404817e+00 -8.4627349448235432e+00 2 0 0
963 321 3 4.2399999999999999e-01 -2.4308776576836060e+00 -5.9397387677395921e+00 -1.1221116579224795e+00 0 0 -2
975 325 3 4.2399999999999999e-01 -4.9218133047640711e+00 -1.0420026966728098e+01 -5.8917974884539568e+00 1 1 1
657 219 3 4.2399999999999999e-01 -4.0218436376852624e+00 -1.2211639717913396e+00 -7.5220200580425214e+00 2 1 2
105 35 3 4.2399999999999999e-01 -3.3640258031092500e+00 -4.2694203533261588e+00 -4.7600881669958097e+00 2 0 -2
481 160 4 -8.4799999999999998e-01 -1.8984896360779580e+00 -5.3772300848218002e-01 -5.1940608944409128e+00 0 1 0
363 121 3 4.2399999999999999e-01 -7.8760261994821619e+00 -6.0443231424779551e+00 -6.6058344711212236e-01 2 3 -3
614 204 3 4.2399999999999999e-01 -2.7304882417255190e+00 -3.5827557522780964e+00 -9.4893775394699489e+00 -3 0 -2
132 44 3 4.2399999999999999e-01 -4.6235259204781682e+00 -7.9930941543279532e+00 -8.7385756802997658e+00 1 2 -3
408 136 3 4.2399999999999999e-01 -9.8536551329536870e+00 -9.0292217960124592e+00 -4.2178436957965539e+00 1 -1 -2
5 1 2 5.9999999999999998e-02 -5.7316312458027596e+00 -1.0977337368866495e+01 -4.8273674714418151e+00 158 -144 317
270 90 3 4.2399999999999999e-01 -5.9608095199329014e-01 -1.0303897261631302e+01 -4.7331885941710272e+00 -3 -2 0
757 252 4 -8.4799999999999998e-01 -3.5200641932600538e+00 -1.8483742379693826e+00 -1.0441621848249518e+00 -1 3 1
482 160 3 4.2399999999999999e-01 -1.8076945170899172e+00 -1.3353501768006257e+00 -5.7903076888505502e+00 0 1 0
153 51 3 4.2399999999999999e-01 -1.2639743338275053e+00 -4.5023847730179867e-01 -7.5753528979418974e+00 -1 0 1
328 109 4 -8.4799999999999998e-01 -2.3018273664161129e+00 -6.3368903715508269e+00 -9.4478267405538183e+00 -1 3 0
684 228 3 4.2399999999999999e-01 -6.4288329351490550e+00 -6.1950961920912304e+00 -6.1326414665915552e+00 0 3 0
872 290 3 4.2399999999999999e-01 -4.5956210652270242e+00 -5.3451742786338317e+00 -2.0658568061191147e+00 2 0 -1
273 91 3 4.2399999999999999e-01 -6.8274595765770307e-01 -4.3541076150892701e+00 -5.3142815824226917e+00 -2 0 1
3 1 2 5.9999999999999998e-02 -4.0920749516951398e+00 -1.0757928130944554e+01 -5.3103722840785030e+00 158 -144 317
405 135 3 4.2399999999999999e-01 -7.4500005500308228e+00 -6.9954464397766598e+00 -4.0965593824043509e+00 2 0 -1
964 321 4 -8.4799999999999998e-01 -3.3148398740561813e+00 -5.4970923906283051e+00 -9.7165520828744079e-01 0 0 -2
9 3 3 4.2399999999999999e-01 -1.8943777483921913e+00 -1.4249851919856997e+00 -3.7591055458070235e+00 1 -1 0
137 45 3 4.2399999999999999e-01 -5.1664782614358487e+00 -7.8637599951764621e+00 -4.2637801762956906e+00 0 1 -2
949 316 4 -8.4799999999999998e-01 -4.7128985950782090e+00 -3.9537351689912619e+00 -5.5606736293322019e+00 -2 1 -1
506 168 3 4.2399999999999999e-01 -7.5524834991791110e+00 -7.6249731137881582e-02 -9.8164785005754265e+00 0 -1 -2
589 196 4 -8.4799999999999998e-01 -4.3615598710519210e+00 -8.2908334670359647e+00 -6.6356667361914035e-01 0 -1 -2
962 320 3 4.2399999999999999e-01 -9.4595867315759108e-01 -5.3815280630827349e+00 -9.1329806821062203e+00 -1 -1 -1
134 44 3 4.2399999999999999e-01 -4.7553435743960115e+00 -7.3346353948546277e+00 -7.2500919985947245e+00 1 2 -3
568 189 4 -8.4799999999999998e-01 -8.6189816986728207e+00 -9.7778770786122671e-01 -5.7615222579853649e+00 1 1 1
756 252 3 4.2399999999999999e-01 -3.4124473627703757e+00 -2.2751847652392279e+00 -1.4626927826095582e-01 -1 3 1
407 135 3 4.2399999999999999e-01 -6.0894490073064418e+00 -6.1362613079560289e+00 -3.8186702292350878e+00 2 0 -1
712 237 4 -8.4799999999999998e-01 -7.0814994935114699e+00 -1.0937406751485671e+01 -3.0782081147425924e+00 -2 1 -2
904 301 4 -8.4799999999999998e-01 -7.7398498900943515e+00 -1.2212010647940694e+00 -2.1409997658251534e+00 1 0 -2
268 89 4 -8.4799999999999998e-01 -8.9782311002897757e+00 -3.9729336027487117e+00 -2.5753623131748746e+00 -1 0 0
409 136 4 -8.4799999999999998e-01 -1.0797251060056896e+01 -9.0456353212970946e+00 -4.5484833868607177e+00 1 -1 -2
135 45 3 4.2399999999999999e-01 -4.5322384953581532e+00 -8.3342061104972736e+00 -2.8344654426318687e+00 0 1 -2
177 59 3 4.2399999999999999e-01 -4.6922848204484966e+00 -4.6095725184183101e+00 -8.0114901125359221e+00 2 -1 -1
864 288 3 4.2399999999999999e-01 -7.9099027107121636e+00 -9.0952904250871462e+00 -9.8416527574375596e+00 -1 0 2
247 82 4 -8.4799999999999998e-01 -1.0463887342130107e+00 -8.6285161673736006e+00 -8.1058649166338199e+00 -2 2 0
685 228 4 -8.4799999999999998e-01 -6.1072083770391625e+00 -5.8892572429766190e+00 -7.0287341386862145e+00 0 3 0
758 252 3 4.2399999999999999e-01 -3.4983963048137028e+00 -8.5354656189389111e-01 -9.4507309166670517e-01 -1 3 1
87 29 3 4.2399999999999999e-01 -8.3474974637062545e+00 -4.0490285550709908e+00 -4.1778351724861036e+00 -1 -1 0
246 82 3 4.2399999999999999e-01 -1.6780709985018412e+00 -9.3535395978078189e+00 -8.3802432181793378e+00 -2 2 0
339 113 3 4.2399999999999999e-01 -8.2826489520570554e+00 -7.3977233203859427e+00 -9.2873842119362173e+00 -2 0 -2
797 265 3 4.2399999999999999e-01 -8.6698651986144935e+00 -4.4882391267340571e+00 -7.2601025024572472e+00 -2 0 0
950 316 3 4.2399999999999999e-01 -5.3961406200443420e+00 -3.3041428942139133e+00 -5.2272414494047794e+00 -2 1 -1
88 29 4 -8.4799999999999998e-01 -7.8028961472759857e+00 -3.7830217138492053e+00 -4.9732046487381378e+00 -1 -1 0
677 225 3 4.2399999999999999e-01 -4.6885867689660410e+00 -2.1638021236709282e+00 -2.2905783619502937e+00 0 0 -1
613 204 4 -8.4799999999999998e-01 -2.0783981266839699e+00 -2.8626216836238321e+00 -9.7263355262729227e+00 -3 0 -2
340 113 4 -8.4799999999999998e-01 -7.3267352653271516e+00 -7.5306968430881476e+00 -9.0256452679973034e+00 -2 0 -2
106 35 4 -8.4799999999999998e-01 -2.5465143715110834e+00 -4.5752381297722780e+00 -4.2721212289289401e+00 2 0 -2
659 219 3 4.2399999999999999e-01 -4.5660657884671361e+00 -2.4906041280515492e+00 -8.3931493307095479e+00 2 1 2
592 197 4 -8.4799999999999998e-01 -1.0981178645964963e+01 -9.1822861519108834e+00 -9.6393898856055777e+00 3 0 0
248 82 3 4.2399999999999999e-01 -5.2518851418467882e-01 -8.9256700440998795e+00 -7.3058530569344580e+00 -2 2 0
337 112 4 -8.4799999999999998e-01 -5.8898303960568645e+00 -1.0413819524562461e+01 -7.5953385302768019e+00 0 3 0
237 79 3 4.2399999999999999e-01 -8.4545936084436839e+00 -1.0750304970300238e+01 -5.8686180055734960e+00 2 3 3
136 45 4 -8.4799999999999998e-01 -4.3655990651968741e+00 -8.2634735098343750e+00 -3.8179251559146614e+00 0 1 -2
886 295 4 -8.4799999999999998e-01 -1.0816223697856405e+01 -3.3483226322947734e+00 -5.2502452794922760e-01 0 1 3
591 197 3 4.2399999999999999e-01 -1.0032625879792123e+01 -9.4073390491190274e+00 -9.8620255558690602e+00 3 0 0
490 163 4 -8.4799999999999998e-01 -1.0878410741277053e+01 -6.6251629161834193e+00 -8.1651997475020508e+00 1 3 0
175 58 4 -8.4799999999999998e-01 -5.0388842666752334e+00 -7.8101221980403537e+00 -1.0595598734263252e+01 -1 1 0
960 320 3 4.2399999999999999e-01 -7.1497664070414579e-01 -3.7680162128091705e+00 -9.0342575054199692e+00 -1 -1 -1
267 89 3 4.2399999999999999e-01 -9.6582952779895077e+00 -3.5308232746716710e+00 -1.9905422145606693e+00 -1 0 0
552 184 3 4.2399999999999999e-01 -5.1354991472711067e+00 -3.6629006331713390e+00 -1.0012159818609234e+01 -1 1 0
740 246 3 4.2399999999999999e-01 -2.7782040262549650e+00 -7.6085882186294569e+00 -4.2131736527645156e+00 -1 1 0
739 246 4 -8.4799999999999998e-01 -1.8956995334657947e+00 -7.1389603801717918e+00 -4.2376432002174509e+00 -1 1 0
271 90 4 -8.4799999999999998e-01 -2.8465818502739459e-01 -9.5328713566195713e+00 -5.2886122555347139e+00 -3 -2 0
239 79 3 4.2399999999999999e-01 -6.9280873580219389e+00 -1.0816836215184521e+01 -6.4447101696831277e+00 2 3 3
961 320 4 -8.4799999999999998e-01 -2.8924655878118521e-01 -4.6632933570678583e+00 -8.9031358572972916e+00 -1 -1 -1
154 51 4 -8.4799999999999998e-01 -2.1283680966459091e+00 -7.7749070538811260e-01 -7.9570530841017213e+00 -1 0 1
365 121 3 4.2399999999999999e-01 -8.4400111554607715e+00 -7.5048568513638063e+00 -1.9659822480381628e-01 2 3 -3
433 144 4 -8.4799999999999998e-01 -7.1826347124306320e+00 -4.7391306650447520e+00 -6.7536664163057480e-02 0 -2 0
174 58 3 4.2399999999999999e-01 -4.8865473022985322e+00 -8.7927282940840126e+00 -1.0701616051237407e+01 -1 1 0
612 204 3 4.2399999999999999e-01 -1.9390830841705000e+00 -2.8517588877534941e+00 -1.0716505319709624e+01 -3 0 -2
651 217 3 4.2399999999999999e-01 -1.0996671183061958e+01 -3.2802182872102552e+00 -7.5592125076901588e+00 0 -2 0
713 237 3 4.2399999999999999e-01 -7.1006685234983564e+00 -1.0830571897261004e+01 -4.0722830883281889e+00 -2 1 -2
801 267 3 4.2399999999999999e-01 -6.8118675096021875e-02 -6.9724350454224453e+00 -1.5659854189706994e+00 1 -2 -1
480 160 3 4.2399999999999999e-01 -2.8189288138788147e+00 -1.5737644629461123e-01 -5.2840425825943846e+00 0 1 0
193 64 4 -8.4799999999999998e-01 -2.1664222136206064e+00 -1.1111969237474119e+01 -7.2876811348628125e+00 1 3 0
320 106 3 4.2399999999999999e-01 -1.9655132765180205e-01 -4.8072067918473147e+00 -2.3265077825829046e+00 -1 2 -4
965 321 3 4.2399999999999999e-01 -3.2723413264188252e+00 -4.9414886479561835e+00 -1.4131820926181504e-01 0 0 -2
887 295 3 4.2399999999999999e-01 -1.0526215288121449e+01 -4.1677565358224218e+00 -3.0663688880663287e-02 0 1 3
470 156 3 4.2399999999999999e-01 -1.4528464161646752e+00 -8.7946467836183508e+00 4.9215521633395607e+00 -1 0 1
720 240 3 4.2399999999999999e-01 -1.5255494628242037e+00 -6.4985540652188076e+00 3.6104493533858690e+00 -1 1 -3
411 137 3 4.2399999999999999e-01 -4.0524021688684178e+00 -5.6410921310930329e+00 6.2773492824348427e+00 -1 -1 -3
413 137 3 4.2399999999999999e-01 -4.8899864166527705e+00 -4.3653040341144624e+00 6.8581575249357432e+00 -1 -1 -3
366 122 3 4.2399999999999999e-01 -3.0614471015249940e+00 -1.0451790296454451e+01 1.0375223738171064e+01 -4 -2 0
124 41 4 -8.4799999999999998e-01 -4.1829707719979918e+00 -6.4231709981010203e+00 9.4678915205187852e+00 -2 2 -1
774 258 3 4.2399999999999999e-01 -9.3092482146381563e+00 -1.0016273700435150e+01 1.8030065871463687e+00 -1 3 -1
776 258 3 4.2399999999999999e-01 -8.0756001080589197e+00 -9.2920847719998143e+00 1.0154799037167841e+00 -1 3 -1
464 154 3 4.2399999999999999e-01 -6.4682329698370067e+00 -1.1022966730815970e+01 3.7403162020626315e+00 -2 1 -2
1004 334 3 4.2399999999999999e-01 -4.3158280936532920e+00 -4.3220220006518950e+00 2.2906184085069441e+00 -1 3 -1
590 196 3 4.2399999999999999e-01 -5.0174285391537747e+00 -8.6229956063916582e+00 1.4275180811299748e-02 0 -1 -2
574 191 4 -8.4799999999999998e-01 -9.7133290319582066e+00 -4.8918133234089263e+00 3.2349717791853596e+00 0 1 0
1036 345 4 -8.4799999999999998e-01 -2.0444895557895677e+00 -9.9386893128720928e+00 6.4689377525310636e+00 -2 0 -3
554 184 3 4.2399999999999999e-01 -5.4398792801395066e+00 -3.2748342954472802e+00 1.0678156334751174e+01 -1 1 -1
125 41 3 4.2399999999999999e-01 -4.1999691678341859e+00 -5.4412115205996274e+00 9.2796526093418326e+00 -2 2 -1
775 258 4 -8.4799999999999998e-01 -9.0698391909782821e+00 -9.3311014333352293e+00 1.1151177827473884e+00 -1 3 -1
721 240 4 -8.4799999999999998e-01 -1.7966816222141340e+00 -5.9116328735681840e+00 2.8475761238635915e+00 -1 1 -3
467 155 3 4.2399999999999999e-01 -8.2900353402851152e+00 -9.4619016190978815e+00 9.6620255243408675e+00 2 2 -1
545 181 3 4.2399999999999999e-01 -5.6786159791839541e+00 -3.0278228413323394e+00 3.4368197563230876e+00 -2 1 1
582 194 3 4.2399999999999999e-01 -7.9684838522195660e+00 -4.8596812050367175e+00 1.0860804831801582e+01 1 0 -1
586 195 4 -8.4799999999999998e-01 -1.0731582541894557e+01 -3.5069513061998139e+00 1.0418191555040663e+01 -1 0 -2
544 181 4 -8.4799999999999998e-01 -4.7073269919557470e+00 -2.9780410172006224e+00 3.6693743703864499e+00 -2 1 1
768 256 3 4.2399999999999999e-01 -1.3531736984995568e-01 -1.1061711600501138e+01 1.0625682420708321e+01 2 0 0
1010 336 3 4.2399999999999999e-01 -3.3393777192639815e+00 -2.3122583829088175e+00 2.4024010943198011e+00 3 2 -2
446 148 3 4.2399999999999999e-01 -5.6927078225056027e+00 -1.0314686283495901e+01 7.0247130044248269e+00 -3 2 -2
454 151 4 -8.4799999999999998e-01 -1.4599242372164181e+00 -5.8620516393780990e+00 9.2801016739736131e+00 0 2 -2
353 117 3 4.2399999999999999e-01 -3.8260499085959108e+00 -1.7612596832120708e-01 5.6512987704106497e+00 -2 0 -1
722 240 3 4.2399999999999999e-01 -9.8112317920088188e-01 -5.5166832966399548e+00 2.4246771720473177e+00 -1 1 -3
587 195 3 4.2399999999999999e-01 -9.9272890729648289e+00 -3.5936863534574561e+00 1.1006026337081954e+01 -1 0 -2
908 302 3 4.2399999999999999e-01 -6.6140697049696646e+00 -8.1685956460003002e+00 3.9308838325475577e+00 0 3 -3
604 201 4 -8.4799999999999998e-01 -1.6663121328047321e+00 -3.1118625715828632e+00 9.5539685936108665e+00 0 2 3
165 55 3 4.2399999999999999e-01 -8.8182864082189347e+00 -3.8481503899726999e+00 7.0409910933404820e+00 1 -2 0
814 271 4 -8.4799999999999998e-01 -6.9992773591831359e-01 -2.1902577635678782e+00 1.3510760176094490e+00 0 2 -1
786 262 3 4.2399999999999999e-01 -6.3431617437574692e+00 -2.3423234715968100e-01 2.4632525625060779e+00 1 -1 -1
142 47 4 -8.4799999999999998e-01 -2.6746725112646335e+00 -1.8256930433653267e+00 5.6475427113017656e+00 1 0 0
727 242 4 -8.4799999999999998e-01 -4.2671421378069052e+00 -7.7097657246671902e+00 6.8772328626528125e+00 0 0 -2
833 277 3 4.2399999999999999e-01 -8.2192152193055552e+00 -3.8136981205871754e+00 3.5921062154985286e+00 1 -1 -2
575 191 3 4.2399999999999999e-01 -9.8918567758893214e+00 -5.1684861744183879e+00 2.2907538240697836e+00 0 1 0
1008 336 3 4.2399999999999999e-01 -3.9070231138510714e+00 -9.2021381620915044e-01 1.7648065512033817e+00 3 2 -2
584 194 3 4.2399999999999999e-01 -6.5512968155067162e+00 -4.8892890077862035e+00 1.0050108661256273e+01 1 0 -1
210 70 3 4.2399999999999999e-01 -7.6868193127267510e+00 -1.8779341021102045e+00 3.2470493329983459e+00 1 0 -4
453 151 3 4.2399999999999999e-01 -8.2295097899146796e-01 -6.6062804282610017e+00 9.0792193561724890e+00 0 2 -2
667 222 4 -8.4799999999999998e-01 -1.0452644887712284e+01 -5.8041687047691495e+00 7.1635662394263910e-01 -1 0 0
1002 334 3 4.2399999999999999e-01 -3.1500012382537390e+00 -5.4638437164050320e+00 2.2304783295640167e+00 -1 3 -1
468 156 3 4.2399999999999999e-01 -2.6926500981527823e-03 -8.0454270686815814e+00 4.9689168626884790e+00 -1 0 1
509 169 3 4.2399999999999999e-01 -6.8644500206113914e+00 -2.5263918121960920e+00 7.2719005843475610e+00 -2 3 0
868 289 4 -8.4799999999999998e-01 -7.3802781768031949e+00 -6.3106320710579551e+00 1.9948944387423904e+00 2 2 1
469 156 4 -8.4799999999999998e-01 -9.1107086024659978e-01 -8.0403150518434430e+00 4.5508441994551507e+00 -1 0 1
772 257 4 -8.4799999999999998e-01 -9.2784682404322645e+00 -4.8623379056407368e+00 8.3313040597339612e+00 -1 1 0
412 137 4 -8.4799999999999998e-01 -4.1084671394433245e+00 -4.6429299733551836e+00 6.2994877699812459e+00 -1 -1 -3
167 55 3 4.2399999999999999e-01 -9.4183763247322965e+00 -2.3885126744493181e+00 6.6216172778498699e+00 1 -2 0
502 167 4 -8.4799999999999998e-01 -6.4766154900464024e+00 -9.1188501952792116e+00 1.1729299460223483e+00 1 3 -2
897 299 3 4.2399999999999999e-01 -1.0331245927804716e+01 -4.3300613919701547e-01 1.1679970827801736e+00 -1 0 -2
979 326 4 -8.4799999999999998e-01 -3.3203822847948041e+00 -5.7304109968913330e-01 9.0221316868121715e+00 0 2 -3
465 155 3 4.2399999999999999e-01 -8.1047787446651238e+00 -1.0464425531440906e+01 8.3864287962064790e+00 2 2 -1
719 239 3 4.2399999999999999e-01 -4.8736262305106219e+00 -2.9354872253161446e+00 8.4139206253230174e+00 -1 2 -1
853 284 4 -8.4799999999999998e-01 -7.0637249392441293e+00 -2.1136201031009456e+00 3.2335279613874057e-01 1 1 -3
141 47 3 4.2399999999999999e-01 -1.6937665591923547e+00 -1.9734333652394582e+00 5.5212035943681688e+00 1 0 0
605 201 3 4.2399999999999999e-01 -1.6022542951378504e+00 -4.1081895853371968e+00 9.6104525043407971e+00 0 2 3
1038 346 3 4.2399999999999999e-01 -5.2797786967678739e-01 -5.6275672603932323e+00 7.5306829044118313e+00 -1 1 -2
143 47 3 4.2399999999999999e-01 -2.9769351452922557e+00 -2.2889451835232162e+00 6.4806080753648505e+00 1 0 0
123 41 3 4.2399999999999999e-01 -4.4174055989663792e+00 -6.9261216207083782e+00 8.6359987226140351e+00 -2 2 -1
808 269 4 -8.4799999999999998e-01 -5.2998406811731069e+00 -7.0658777926605199e+00 3.4656028091152020e+00 0 1 1
899 299 3 4.2399999999999999e-01 -1.0737008969113253e+01 -1.4747408445988714e+00 2.3582404808903537e+00 -1 0 -2
980 326 3 4.2399999999999999e-01 -3.3026178033615921e+00 -5.2446219841289121e-01 8.0234898118184947e+00 0 2 -3
444 148 3 4.2399999999999999e-01 -6.9228699910349132e+00 -9.3306756441541765e+00 7.4547732643779181e+00 -3 2 -2
813 271 3 4.2399999999999999e-01 -1.6861174035169348e+00 -2.0264410438706975e+00 1.3748445538556702e+00 0 2 -1
212 70 3 4.2399999999999999e-01 -8.8225418749674223e+00 -1.2474569557262924e+00 2.2575262685313362e+00 1 0 -4
717 239 3 4.2399999999999999e-01 -3.5304732580060199e+00 -3.2922463398529125e+00 9.2713542275806109e+00 -1 2 -1
1009 336 4 -8.4799999999999998e-01 -3.2494590943486363e+00 -1.6641913259500356e+00 1.6461670218166962e+00 3 2 -2
906 302 3 4.2399999999999999e-01 -6.9919508673925446e+00 -9.1218412544071921e+00 5.2017312858796547e+00 0 3 -3
508 169 4 -8.4799999999999998e-01 -5.9765348622040486e+00 -2.0849271390388946e+00 7.4010435581149121e+00 -2 3 0
207 69 3 4.2399999999999999e-01 -9.1529328905770839e+00 -8.1196584164003749e+00 7.9217202316743585e+00 3 -1 0
666 222 3 4.2399999999999999e-01 -1.1086430896060614e+01 -6.5731537646500673e+00 7.9965270024675306e-01 -1 0 0
445 148 4 -8.4799999999999998e-01 -6.1834107237296987e+00 -9.4736718552683694e+00 6.7969634746452190e+00 -3 2 -2
415 138 4 -8.4799999999999998e-01 -9.8050222553939292e+00 -8.5452460572876650e+00 4.9698417353826070e+00 -1 1 0
726 242 3 4.2399999999999999e-01 -5.0276149792620295e+00 -8.3432429196367419e+00 7.0198994973457243e+00 0 0 -2
455 151 3 4.2399999999999999e-01 -2.3977399739542609e+00 -6.2073258468564791e+00 9.2447387280364399e+00 0 2 -2
1003 334 4 -8.4799999999999998e-01 -4.0212663045281767e+00 -5.1652485303827005e+00 1.8409911697858377e+00 -1 3 -1
416 138 3 4.2399999999999999e-01 -8.9104726500906875e+00 -8.7740103976249966e+00 4.5859034305446791e+00 -1 1 0
434 144 3 4.2399999999999999e-01 -7.2734674121814873e+00 -5.2640462593075785e+00 7.7873631360079365e-01 0 -2 0
503 167 3 4.2399999999999999e-01 -6.4443517871618790e+00 -9.0421993510081986e+00 2.1694488044528519e+00 1 3 -2
166 55 4 -8.4799999999999998e-01 -8.6001539049413545e+00 -2.9633288826834061e+00 6.6293203514597483e+00 1 -2 0
718 239 4 -8.4799999999999998e-01 -4.4525409952548261e+00 -3.5976737062509008e+00 9.0337282501213085e+00 -1 2 -1
583 194 4 -8.4799999999999998e-01 -7.4713483561056719e+00 -5.2777791667698182e+00 1.0100532304784034e+01 1 0 -1
368 122 3 4.2399999999999999e-01 -4.4367893380030923e+00 -1.0587402691196001e+01 9.5054114562886500e+00 -4 -2 0
603 201 3 4.2399999999999999e-01 -9.4892338829459533e-01 -2.7654785421565773e+00 8.9495391232686909e+00 0 2 3
854 284 3 4.2399999999999999e-01 -7.2604267972554180e+00 -1.5846969049080446e+00 1.1488888261322696e+00 1 1 -3
367 122 4 -8.4799999999999998e-01 -4.0434288917217325e+00 -1.0263141518795372e+01 1.0365696322034564e+01 -4 -2 0
867 289 3 4.2399999999999999e-01 -6.5988459279165124e+00 -6.7122117654323556e+00 2.4724511927230317e+00 2 2 1
898 299 4 -8.4799999999999998e-01 -1.0244616072213352e+01 -1.3744906308736677e+00 1.4936817066816719e+00 -1 0 -2
815 271 3 4.2399999999999999e-01 -5.0671148927649767e-01 -2.9765150680038470e+00 7.6418962986855199e-01 0 2 -1
807 269 3 4.2399999999999999e-01 -5.0136301994247026e+00 -6.7384401731226493e+00 4.3660637831189941e+00 0 1 1
507 169 3 4.2399999999999999e-01 -6.0849029741217349e+00 -1.2843924352050440e+00 7.9904219712719016e+00 -2 3 0
869 289 3 4.2399999999999999e-01 -8.0941424239457120e+00 -6.0824688459210918e+00 2.6569376824808693e+00 2 2 1
728 242 3 4.2399999999999999e-01 -3.4393873979630607e+00 -8.2265341262828571e+00 6.6587458997572373e+00 0 0 -2
543 181 3 4.2399999999999999e-01 -4.5714551281884281e+00 -3.3040965459319303e+00 4.6048906638517835e+00 -2 1 1
595 198 4 -8.4799999999999998e-01 -1.1061863169471897e+01 -1.5260271139877162e+00 7.1980885349229009e+00 0 -2 -3
501 167 3 4.2399999999999999e-01 -6.4908841154690995e+00 -1.0084409115500078e+01 9.1319779327798933e-01 1 3 -2
831 277 3 4.2399999999999999e-01 -7.6008947067445609e+00 -3.1180866135282876e+00 4.9338704986151907e+00 1 -1 -2
773 257 3 4.2399999999999999e-01 -9.9563286929335284e+00 -4.2540407866443708e+00 8.7441491251310364e+00 -1 1 0
1037 345 3 4.2399999999999999e-01 -1.3054561553262580e+00 -1.0531901867903445e+01 6.7881376089474106e+00 -2 0 -3
978 326 3 4.2399999999999999e-01 -2.4046886295372776e+00 -7.8785373291321292e-01 9.3617230271272174e+00 0 2 -3
1035 345 3 4.2399999999999999e-01 -2.8242467696614142e+00 -1.0498777783828936e+01 6.1892236007828938e+00 -2 0 -3
771 257 3 4.2399999999999999e-01 -8.5489740089704132e+00 -5.0447296171293790e+00 8.9904955383294780e+00 -1 1 0
832 277 4 -8.4799999999999998e-01 -7.4297916192405555e+00 -3.3316052402530163e+00 3.9720498022947517e+00 1 -1 -2
466 155 4 -8.4799999999999998e-01 -8.0099175179039985e+00 -9.5209335904946890e+00 8.7038975189417247e+00 2 2 -1
211 70 4 -8.4799999999999998e-01 -7.9042764329472215e+00 -1.1198067241983836e+00 2.6322993240988080e+00 1 0 -4
573 191 3 4.2399999999999999e-01 -1.0555019159834169e+01 -4.9681718048850794e+00 3.7694743233675148e+00 0 1 0
414 138 3 4.2399999999999999e-01 -9.6834618506033916e+00 -8.1104203896454710e+00 5.8620918727851343e+00 -1 1 0
208 69 4 -8.4799999999999998e-01 -9.8529304484018319e+00 -7.5055709282836691e+00 7.5572173143218553e+00 3 -1 0
809 269 3 4.2399999999999999e-01 -4.6623761198712934e+00 -6.7317768159697771e+00 2.7713548786031375e+00 0 1 1
209 69 3 4.2399999999999999e-01 -9.7065905277148214e+00 -6.5834479041880831e+00 7.9153200491808082e+00 3 -1 0
907 302 4 -8.4799999999999998e-01 -6.9650161377601414e+00 -9.0643273735449377e+00 4.2037672984129486e+00 0 3 -3
437 145 3 4.2399999999999999e-01 -1.7935584665430326e-01 -8.6502392877016003e+00 2.8804074271452453e+00 -4 -2 1
596 198 3 4.2399999999999999e-01 -1.1050143733459842e+01 -1.3496075828947589e+00 8.1823156741581808e+00 0 -2 -3
618 206 3 4.2399999999999999e-01 -1.1043602880972804e+01 -1.5450519403756768e+00 1.0187930216670795e+01 1 3 0
176 58 3 4.2399999999999999e-01 -4.7263626731996995e+00 -7.3338001353823827e+00 1.0829573800221858e+01 -1 1 -1
432 144 3 4.2399999999999999e-01 -7.0498769404601580e+00 -3.7726940250899572e+00 1.5231886769463188e-01 0 -2 0
668 222 3 4.2399999999999999e-01 -9.6834564777604832e+00 -6.0677459557838329e+00 1.3425960177993979e-01 -1 0 0
885 295 3 4.2399999999999999e-01 -1.0684559870893397e+01 -2.5447828579972889e+00 5.5453994828416953e-02 0 1 3