LAMMPS (11 Nov 2013)
# created by fftool

print "Methane in TIP4P water"
Methane in TIP4P water

units real
boundary p p p

atom_style full
bond_style harmonic
angle_style harmonic
special_bonds lj/coul 0.0 0.0 0.5

read_data data.lmp
  1 = max bonds/atom
  6 = max angles/atom
  orthogonal box = (-13.4438 -13.4438 -13.4438) to (13.4438 13.4438 13.4438)
  2 by 2 by 2 MPI processor grid
  1085 atoms
  724 bonds
  366 angles
  4 = max # of 1-2 neighbors
  3 = max # of 1-3 neighbors
  3 = max # of 1-4 neighbors
  4 = max # of special neighbors

pair_style hybrid   lj/cut/coul/long 10.0 10.0   lj/cut/tip4p/long/soft 3 4 2 2 0.125 1 0.5 10.0 10.0 10.0
pair_modify tail no
kspace_style pppm 1.0e-4

pair_coeff    1    1  lj/cut/coul/long    0.0660   3.5000  # C4H C4H
pair_coeff    1    2  lj/cut/coul/long    0.0445   2.9580  # C4H H
pair_coeff    2    2  lj/cut/coul/long    0.0300   2.5000  # H H
pair_coeff    3    3  lj/cut/tip4p/long/soft   0.1628   3.1644  1.0  # Ow Ow
pair_coeff    3    4  lj/cut/tip4p/long/soft   0.0000   1.0000  1.0  # Ow Hw
pair_coeff    4    4  lj/cut/tip4p/long/soft   0.0000   1.0000  1.0  # Hw Hw

pair_coeff    1    3  lj/cut/tip4p/long/soft   0.1036   3.3279  0.0  # C4H Ow
pair_coeff    1    4  lj/cut/tip4p/long/soft   0.0000   1.0000  0.0  # C4H Hw
pair_coeff    2    3  lj/cut/tip4p/long/soft   0.0699   2.8126  0.0  # H Ow
pair_coeff    2    4  lj/cut/tip4p/long/soft   0.0000   1.0000  0.0  # H Hw

variable nsteps equal 2500000
variable nprint equal ${nsteps}/500
variable nprint equal 2500000/500
variable ndump equal ${nsteps}/100
variable ndump equal 2500000/100

variable temp equal 300.0
variable press equal 1.0

fix fSHAKE all shake 0.0001 20 ${nprint} b 2 a 2
fix fSHAKE all shake 0.0001 20 5000 b 2 a 2
  0 = # of size 2 clusters
  0 = # of size 3 clusters
  0 = # of size 4 clusters
  360 = # of frozen angles

neighbor 2.0 bin

timestep 2.0

# velocity all create ${temp} 12345

thermo_style multi
thermo ${nprint}
thermo 5000

fix fNPT all npt temp ${temp} ${temp} 100 iso ${press} ${press} 1000
fix fNPT all npt temp 300 ${temp} 100 iso ${press} ${press} 1000
fix fNPT all npt temp 300 300 100 iso ${press} ${press} 1000
fix fNPT all npt temp 300 300 100 iso 1 ${press} 1000
fix fNPT all npt temp 300 300 100 iso 1 1 1000

run 250000
PPPM initialization ...
  G vector (1/distance) = 0.270215
  grid = 15 15 15
  stencil order = 5
  estimated absolute RMS force accuracy = 0.0258727
  estimated relative force accuracy = 7.7915e-05
  using double precision FFTs
  3d grid and FFT values/proc = 2744 512
SHAKE stats (type/ave/delta) on step 0
  2 0.9572 1.71599e-05
  2 104.52 0.00161974
Memory usage per processor = 6.56628 Mbytes
---------------- Step        0 ----- CPU =      0.0000 (sec) ----------------
TotEng   =        22.9776 KinEng   =         0.0000 Temp     =         0.0000 
PotEng   =        22.9776 E_bond   =         0.0000 E_angle  =         0.1685 
E_dihed  =         0.0000 E_impro  =         0.0000 E_vdwl   =      -203.1677 
E_coul   =     29920.5812 E_long   =    -29694.6044 Press    =       553.8631 
Volume   =     19438.0383 
SHAKE stats (type/ave/delta) on step 5000
  2 0.95698 6.09781e-06
  2 104.52 0.00050338
---------------- Step     5000 ----- CPU =     33.7772 (sec) ----------------
TotEng   =     -3239.9606 KinEng   =       669.8734 Temp     =       310.3987 
PotEng   =     -3909.8340 E_bond   =         0.0047 E_angle  =         0.2166 
E_dihed  =         0.0000 E_impro  =         0.0000 E_vdwl   =       767.1056 
E_coul   =     25332.8170 E_long   =    -30009.9779 Press    =       654.9374 
Volume   =     11028.2665 
SHAKE stats (type/ave/delta) on step 10000
  2 0.956956 5.94284e-06
  2 104.52 0.000663975
---------------- Step    10000 ----- CPU =     69.4447 (sec) ----------------
TotEng   =     -3309.1211 KinEng   =       616.9429 Temp     =       285.8723 
PotEng   =     -3926.0640 E_bond   =         0.0176 E_angle  =         0.2263 
E_dihed  =         0.0000 E_impro  =         0.0000 E_vdwl   =       733.9287 
E_coul   =     25348.8159 E_long   =    -30009.0525 Press    =       -96.4205 
Volume   =     10890.8346 
SHAKE stats (type/ave/delta) on step 15000
  2 0.957018 4.28755e-06
  2 104.52 0.000428413
---------------- Step    15000 ----- CPU =    104.5887 (sec) ----------------
TotEng   =     -3275.7978 KinEng   =       656.7296 Temp     =       304.3082 
PotEng   =     -3932.5273 E_bond   =         0.0192 E_angle  =         0.3445 
E_dihed  =         0.0000 E_impro  =         0.0000 E_vdwl   =       757.1612 
E_coul   =     25319.2619 E_long   =    -30009.3140 Press    =       104.0268 
Volume   =     11055.4269 
SHAKE stats (type/ave/delta) on step 20000
  2 0.957 9.1425e-06
  2 104.52 0.000855455
---------------- Step    20000 ----- CPU =    140.1990 (sec) ----------------
TotEng   =     -3340.9290 KinEng   =       641.9168 Temp     =       297.4445 
PotEng   =     -3982.8458 E_bond   =         0.1413 E_angle  =         0.8591 
E_dihed  =         0.0000 E_impro  =         0.0000 E_vdwl   =       786.1159 
E_coul   =     25242.5736 E_long   =    -30012.5356 Press    =       853.9731 
Volume   =     10724.5036 
SHAKE stats (type/ave/delta) on step 25000
  2 0.956991 2.10777e-05
  2 104.52 0.0014975
---------------- Step    25000 ----- CPU =    174.9765 (sec) ----------------
TotEng   =     -3237.1201 KinEng   =       662.2613 Temp     =       306.8715 
PotEng   =     -3899.3814 E_bond   =         0.1111 E_angle  =         0.5336 
E_dihed  =         0.0000 E_impro  =         0.0000 E_vdwl   =       702.6482 
E_coul   =     25407.5548 E_long   =    -30010.2291 Press    =      -534.9241 
Volume   =     11247.0553 
SHAKE stats (type/ave/delta) on step 30000
  2 0.957008 6.25221e-06
  2 104.52 0.000608547
---------------- Step    30000 ----- CPU =    210.6249 (sec) ----------------
TotEng   =     -3317.5083 KinEng   =       650.9951 Temp     =       301.6511 
PotEng   =     -3968.5034 E_bond   =         0.0119 E_angle  =         0.4823 
E_dihed  =         0.0000 E_impro  =         0.0000 E_vdwl   =       756.9515 
E_coul   =     25284.8950 E_long   =    -30010.8441 Press    =       198.0436 
Volume   =     11009.4480 
SHAKE stats (type/ave/delta) on step 35000
  2 0.957025 1.6857e-05
  2 104.52 0.00136466
---------------- Step    35000 ----- CPU =    245.7942 (sec) ----------------
TotEng   =     -3265.6070 KinEng   =       668.2891 Temp     =       309.6646 
PotEng   =     -3933.8962 E_bond   =         0.0266 E_angle  =         0.6919 
E_dihed  =         0.0000 E_impro  =         0.0000 E_vdwl   =       676.9199 
E_coul   =     25400.0275 E_long   =    -30011.5621 Press    =     -1197.2685 
Volume   =     11085.1748 
SHAKE stats (type/ave/delta) on step 40000
  2 0.95707 7.02773e-06
  2 104.52 0.000589272
---------------- Step    40000 ----- CPU =    280.3325 (sec) ----------------
TotEng   =     -3260.5041 KinEng   =       651.1947 Temp     =       301.7435 
PotEng   =     -3911.6988 E_bond   =         0.0420 E_angle  =         1.3160 
E_dihed  =         0.0000 E_impro  =         0.0000 E_vdwl   =       720.0332 
E_coul   =     25376.8567 E_long   =    -30009.9467 Press    =       -89.3399 
Volume   =     11029.5307 
SHAKE stats (type/ave/delta) on step 45000
  2 0.956992 7.75584e-06
  2 104.52 0.000594199
---------------- Step    45000 ----- CPU =    315.4996 (sec) ----------------
TotEng   =     -3261.6166 KinEng   =       662.8333 Temp     =       307.1365 
PotEng   =     -3924.4499 E_bond   =         0.0966 E_angle  =         1.4342 
E_dihed  =         0.0000 E_impro  =         0.0000 E_vdwl   =       751.5495 
E_coul   =     25334.1933 E_long   =    -30011.7235 Press    =       652.5282 
Volume   =     10858.8606 
SHAKE stats (type/ave/delta) on step 50000
  2 0.957039 1.61711e-05
  2 104.52 0.000801561
---------------- Step    50000 ----- CPU =    351.0245 (sec) ----------------
TotEng   =     -3321.0648 KinEng   =       621.5010 Temp     =       287.9844 
PotEng   =     -3942.5658 E_bond   =         0.4328 E_angle  =         2.6198 
E_dihed  =         0.0000 E_impro  =         0.0000 E_vdwl   =       811.9816 
E_coul   =     25255.6001 E_long   =    -30013.2001 Press    =      1379.6207 
Volume   =     10932.5743 
SHAKE stats (type/ave/delta) on step 55000
  2 0.956982 6.73306e-06
  2 104.52 0.000535723
---------------- Step    55000 ----- CPU =    386.4438 (sec) ----------------
TotEng   =     -3266.4723 KinEng   =       642.5100 Temp     =       297.7193 
PotEng   =     -3908.9824 E_bond   =         0.0605 E_angle  =         2.9318 
E_dihed  =         0.0000 E_impro  =         0.0000 E_vdwl   =       711.8045 
E_coul   =     25387.5059 E_long   =    -30011.2852 Press    =      -207.5117 
Volume   =     11038.8554 
SHAKE stats (type/ave/delta) on step 60000
  2 0.95698 4.4336e-06
  2 104.52 0.000481738
---------------- Step    60000 ----- CPU =    422.0893 (sec) ----------------
TotEng   =     -3280.6515 KinEng   =       672.2295 Temp     =       311.4904 
PotEng   =     -3952.8811 E_bond   =         0.2000 E_angle  =         1.9786 
E_dihed  =         0.0000 E_impro  =         0.0000 E_vdwl   =       699.2064 
E_coul   =     25356.7784 E_long   =    -30011.0445 Press    =     -1123.4236 
Volume   =     11071.4469 
SHAKE stats (type/ave/delta) on step 65000
  2 0.95699 9.46881e-06
  2 104.52 0.000874724
---------------- Step    65000 ----- CPU =    458.4275 (sec) ----------------
TotEng   =     -3359.3515 KinEng   =       630.9518 Temp     =       292.3636 
PotEng   =     -3990.3034 E_bond   =         0.1081 E_angle  =         0.5651 
E_dihed  =         0.0000 E_impro  =         0.0000 E_vdwl   =       807.2122 
E_coul   =     25212.6946 E_long   =    -30010.8834 Press    =       873.7280 
Volume   =     10898.2549 
SHAKE stats (type/ave/delta) on step 70000
  2 0.957007 7.44776e-06
  2 104.52 0.00068113
---------------- Step    70000 ----- CPU =    494.7194 (sec) ----------------
TotEng   =     -3249.5779 KinEng   =       677.4543 Temp     =       313.9114 
PotEng   =     -3927.0322 E_bond   =         0.0599 E_angle  =         2.2141 
E_dihed  =         0.0000 E_impro  =         0.0000 E_vdwl   =       725.4438 
E_coul   =     25356.6202 E_long   =    -30011.3702 Press    =       195.6981 
Volume   =     10708.5228 
SHAKE stats (type/ave/delta) on step 75000
  2 0.957071 4.89657e-06
  2 104.52 0.000463949
---------------- Step    75000 ----- CPU =    530.7449 (sec) ----------------
TotEng   =     -3290.8564 KinEng   =       651.2804 Temp     =       301.7833 
PotEng   =     -3942.1367 E_bond   =         0.4085 E_angle  =         0.4516 
E_dihed  =         0.0000 E_impro  =         0.0000 E_vdwl   =       729.0574 
E_coul   =     25341.1356 E_long   =    -30013.1898 Press    =      -601.8775 
Volume   =     11072.0047 
SHAKE stats (type/ave/delta) on step 80000
  2 0.957022 1.36096e-05
  2 104.52 0.00105764
---------------- Step    80000 ----- CPU =    565.3134 (sec) ----------------
TotEng   =     -3264.4298 KinEng   =       663.9357 Temp     =       307.6473 
PotEng   =     -3928.3655 E_bond   =         0.6709 E_angle  =         0.6586 
E_dihed  =         0.0000 E_impro  =         0.0000 E_vdwl   =       729.3046 
E_coul   =     25350.0384 E_long   =    -30009.0380 Press    =      -523.2514 
Volume   =     11046.3122 
SHAKE stats (type/ave/delta) on step 85000
  2 0.956995 1.32069e-05
  2 104.52 0.000694925
---------------- Step    85000 ----- CPU =    601.2212 (sec) ----------------
TotEng   =     -3297.5689 KinEng   =       668.2466 Temp     =       309.6449 
PotEng   =     -3965.8154 E_bond   =         0.2676 E_angle  =         1.1016 
E_dihed  =         0.0000 E_impro  =         0.0000 E_vdwl   =       753.0956 
E_coul   =     25292.4150 E_long   =    -30012.6953 Press    =       640.7580 
Volume   =     10590.6726 
SHAKE stats (type/ave/delta) on step 90000
  2 0.957021 4.80026e-06
  2 104.52 0.000409081
---------------- Step    90000 ----- CPU =    636.8029 (sec) ----------------
TotEng   =     -3216.2523 KinEng   =       648.9347 Temp     =       300.6964 
PotEng   =     -3865.1870 E_bond   =         0.1165 E_angle  =         1.5546 
E_dihed  =         0.0000 E_impro  =         0.0000 E_vdwl   =       662.8450 
E_coul   =     25480.7650 E_long   =    -30010.4681 Press    =     -1033.9691 
Volume   =     10991.7026 
SHAKE stats (type/ave/delta) on step 95000
  2 0.957012 7.54445e-06
  2 104.52 0.000639298
---------------- Step    95000 ----- CPU =    673.2504 (sec) ----------------
TotEng   =     -3258.0339 KinEng   =       667.9844 Temp     =       309.5234 
PotEng   =     -3926.0183 E_bond   =         1.2818 E_angle  =         0.8571 
E_dihed  =         0.0000 E_impro  =         0.0000 E_vdwl   =       714.0035 
E_coul   =     25371.3453 E_long   =    -30013.5059 Press    =      -776.1449 
Volume   =     10834.4204 
SHAKE stats (type/ave/delta) on step 100000
  2 0.957009 5.84181e-06
  2 104.52 0.000353105
---------------- Step   100000 ----- CPU =    709.1139 (sec) ----------------
TotEng   =     -3264.9184 KinEng   =       641.7856 Temp     =       297.3836 
PotEng   =     -3906.7039 E_bond   =         0.2741 E_angle  =         2.9244 
E_dihed  =         0.0000 E_impro  =         0.0000 E_vdwl   =       774.3727 
E_coul   =     25328.4963 E_long   =    -30012.7714 Press    =       675.4700 
Volume   =     11035.8307 
SHAKE stats (type/ave/delta) on step 105000
  2 0.956957 5.07866e-06
  2 104.52 0.000587765
---------------- Step   105000 ----- CPU =    744.8600 (sec) ----------------
TotEng   =     -3313.5113 KinEng   =       644.8889 Temp     =       298.8216 
PotEng   =     -3958.4002 E_bond   =         0.0935 E_angle  =         1.2122 
E_dihed  =         0.0000 E_impro  =         0.0000 E_vdwl   =       739.4714 
E_coul   =     25315.2775 E_long   =    -30014.4548 Press    =        -8.7429 
Volume   =     10819.2513 
SHAKE stats (type/ave/delta) on step 110000
  2 0.957058 5.82402e-06
  2 104.52 0.00046973
---------------- Step   110000 ----- CPU =    780.6730 (sec) ----------------
TotEng   =     -3244.1288 KinEng   =       668.9535 Temp     =       309.9724 
PotEng   =     -3913.0823 E_bond   =         0.8629 E_angle  =         2.2345 
E_dihed  =         0.0000 E_impro  =         0.0000 E_vdwl   =       698.3886 
E_coul   =     25396.9732 E_long   =    -30011.5417 Press    =      -612.6115 
Volume   =     10904.8632 
SHAKE stats (type/ave/delta) on step 115000
  2 0.956975 1.17074e-05
  2 104.52 0.000696213
---------------- Step   115000 ----- CPU =    815.7920 (sec) ----------------
TotEng   =     -3224.6241 KinEng   =       676.1001 Temp     =       313.2839 
PotEng   =     -3900.7242 E_bond   =         0.0815 E_angle  =         3.1615 
E_dihed  =         0.0000 E_impro  =         0.0000 E_vdwl   =       680.3134 
E_coul   =     25426.6209 E_long   =    -30010.9014 Press    =      -798.9718 
Volume   =     10960.8973 
SHAKE stats (type/ave/delta) on step 120000
  2 0.957 5.18899e-06
  2 104.52 0.000490094
---------------- Step   120000 ----- CPU =    851.2464 (sec) ----------------
TotEng   =     -3329.3566 KinEng   =       656.1971 Temp     =       304.0615 
PotEng   =     -3985.5537 E_bond   =         0.3849 E_angle  =         2.6534 
E_dihed  =         0.0000 E_impro  =         0.0000 E_vdwl   =       741.9623 
E_coul   =     25278.5315 E_long   =    -30009.0858 Press    =      -343.6604 
Volume   =     10857.7580 
SHAKE stats (type/ave/delta) on step 125000
  2 0.957015 6.64722e-06
  2 104.52 0.000705385
---------------- Step   125000 ----- CPU =    886.1991 (sec) ----------------
TotEng   =     -3297.0247 KinEng   =       640.1406 Temp     =       296.6214 
PotEng   =     -3937.1653 E_bond   =         0.0780 E_angle  =         2.2325 
E_dihed  =         0.0000 E_impro  =         0.0000 E_vdwl   =       710.9444 
E_coul   =     25362.1441 E_long   =    -30012.5642 Press    =      -454.6698 
Volume   =     10764.4159 
SHAKE stats (type/ave/delta) on step 130000
  2 0.956942 8.65275e-06
  2 104.52 0.000981204
---------------- Step   130000 ----- CPU =    921.0845 (sec) ----------------
TotEng   =     -3245.3463 KinEng   =       663.7251 Temp     =       307.5498 
PotEng   =     -3909.0714 E_bond   =         0.2439 E_angle  =         3.0590 
E_dihed  =         0.0000 E_impro  =         0.0000 E_vdwl   =       689.8067 
E_coul   =     25412.2087 E_long   =    -30014.3896 Press    =      -566.1111 
Volume   =     10840.9582 
SHAKE stats (type/ave/delta) on step 135000
  2 0.956963 5.70032e-06
  2 104.52 0.00052408
---------------- Step   135000 ----- CPU =    956.2410 (sec) ----------------
TotEng   =     -3302.8159 KinEng   =       642.1786 Temp     =       297.5658 
PotEng   =     -3944.9945 E_bond   =         0.6871 E_angle  =         1.5858 
E_dihed  =         0.0000 E_impro  =         0.0000 E_vdwl   =       674.5934 
E_coul   =     25389.2120 E_long   =    -30011.0728 Press    =     -1675.4841 
Volume   =     10973.4351 
SHAKE stats (type/ave/delta) on step 140000
  2 0.957025 1.21077e-05
  2 104.52 0.000889547
---------------- Step   140000 ----- CPU =    991.6714 (sec) ----------------
TotEng   =     -3308.4210 KinEng   =       645.9255 Temp     =       299.3020 
PotEng   =     -3954.3465 E_bond   =         0.7454 E_angle  =         1.4955 
E_dihed  =         0.0000 E_impro  =         0.0000 E_vdwl   =       729.7811 
E_coul   =     25325.6313 E_long   =    -30011.9998 Press    =      -411.0412 
Volume   =     10811.5328 
SHAKE stats (type/ave/delta) on step 145000
  2 0.957002 4.79068e-06
  2 104.52 0.000536301
---------------- Step   145000 ----- CPU =   1026.6656 (sec) ----------------
TotEng   =     -3351.1533 KinEng   =       635.8927 Temp     =       294.6531 
PotEng   =     -3987.0460 E_bond   =         0.8272 E_angle  =         1.4919 
E_dihed  =         0.0000 E_impro  =         0.0000 E_vdwl   =       800.9030 
E_coul   =     25219.6330 E_long   =    -30009.9012 Press    =      1214.1823 
Volume   =     10691.9219 
SHAKE stats (type/ave/delta) on step 150000
  2 0.956999 4.7066e-06
  2 104.52 0.000493765
---------------- Step   150000 ----- CPU =   1062.2622 (sec) ----------------
TotEng   =     -3330.7408 KinEng   =       640.7796 Temp     =       296.9175 
PotEng   =     -3971.5204 E_bond   =         0.0511 E_angle  =         3.4989 
E_dihed  =         0.0000 E_impro  =         0.0000 E_vdwl   =       788.0873 
E_coul   =     25247.3969 E_long   =    -30010.5546 Press    =       753.8783 
Volume   =     10800.6770 
SHAKE stats (type/ave/delta) on step 155000
  2 0.957025 1.63069e-05
  2 104.52 0.00212922
---------------- Step   155000 ----- CPU =   1098.4094 (sec) ----------------
TotEng   =     -3303.8145 KinEng   =       650.2934 Temp     =       301.3259 
PotEng   =     -3954.1079 E_bond   =         1.0753 E_angle  =         1.4435 
E_dihed  =         0.0000 E_impro  =         0.0000 E_vdwl   =       771.6776 
E_coul   =     25285.5655 E_long   =    -30013.8698 Press    =        -1.1826 
Volume   =     11082.6571 
SHAKE stats (type/ave/delta) on step 160000
  2 0.95703 5.50685e-06
  2 104.52 0.000447608
---------------- Step   160000 ----- CPU =   1134.4450 (sec) ----------------
TotEng   =     -3225.8483 KinEng   =       640.8703 Temp     =       296.9595 
PotEng   =     -3866.7186 E_bond   =         0.5277 E_angle  =         2.4292 
E_dihed  =         0.0000 E_impro  =         0.0000 E_vdwl   =       662.4981 
E_coul   =     25476.7528 E_long   =    -30008.9263 Press    =     -1541.3006 
Volume   =     11332.4078 
SHAKE stats (type/ave/delta) on step 165000
  2 0.956992 6.25378e-06
  2 104.52 0.000485727
---------------- Step   165000 ----- CPU =   1169.8339 (sec) ----------------
TotEng   =     -3259.4420 KinEng   =       626.7191 Temp     =       290.4023 
PotEng   =     -3886.1610 E_bond   =         0.0849 E_angle  =         3.3967 
E_dihed  =         0.0000 E_impro  =         0.0000 E_vdwl   =       775.6046 
E_coul   =     25345.5996 E_long   =    -30010.8468 Press    =       875.4226 
Volume   =     11071.7054 
SHAKE stats (type/ave/delta) on step 170000
  2 0.956956 4.84029e-06
  2 104.52 0.000538624
---------------- Step   170000 ----- CPU =   1205.8497 (sec) ----------------
TotEng   =     -3278.3201 KinEng   =       633.4281 Temp     =       293.5111 
PotEng   =     -3911.7482 E_bond   =         0.4578 E_angle  =         2.3679 
E_dihed  =         0.0000 E_impro  =         0.0000 E_vdwl   =       721.9425 
E_coul   =     25374.1057 E_long   =    -30010.6221 Press    =      -189.2757 
Volume   =     10844.4931 
SHAKE stats (type/ave/delta) on step 175000
  2 0.956997 8.387e-06
  2 104.52 0.000961531
---------------- Step   175000 ----- CPU =   1241.1118 (sec) ----------------
TotEng   =     -3293.6335 KinEng   =       649.7652 Temp     =       301.0812 
PotEng   =     -3943.3987 E_bond   =         0.2846 E_angle  =         1.8634 
E_dihed  =         0.0000 E_impro  =         0.0000 E_vdwl   =       724.4707 
E_coul   =     25342.1461 E_long   =    -30012.1635 Press    =      -211.9035 
Volume   =     10735.3753 
SHAKE stats (type/ave/delta) on step 180000
  2 0.95701 9.56392e-06
  2 104.52 0.000786538
---------------- Step   180000 ----- CPU =   1276.4040 (sec) ----------------
TotEng   =     -3337.1630 KinEng   =       611.2725 Temp     =       283.2448 
PotEng   =     -3948.4355 E_bond   =         0.1562 E_angle  =         2.2483 
E_dihed  =         0.0000 E_impro  =         0.0000 E_vdwl   =       778.8520 
E_coul   =     25279.9734 E_long   =    -30009.6653 Press    =       991.5230 
Volume   =     10754.6703 
SHAKE stats (type/ave/delta) on step 185000
  2 0.956987 1.07095e-05
  2 104.52 0.000633285
---------------- Step   185000 ----- CPU =   1311.7142 (sec) ----------------
TotEng   =     -3321.2976 KinEng   =       624.3324 Temp     =       289.2964 
PotEng   =     -3945.6299 E_bond   =         0.0780 E_angle  =         3.0044 
E_dihed  =         0.0000 E_impro  =         0.0000 E_vdwl   =       737.9365 
E_coul   =     25324.6192 E_long   =    -30011.2681 Press    =       165.6231 
Volume   =     10866.6615 
SHAKE stats (type/ave/delta) on step 190000
  2 0.956914 1.60478e-05
  2 104.52 0.00179083
---------------- Step   190000 ----- CPU =   1347.0475 (sec) ----------------
TotEng   =     -3269.8684 KinEng   =       647.7261 Temp     =       300.1363 
PotEng   =     -3917.5945 E_bond   =         0.2453 E_angle  =         1.2487 
E_dihed  =         0.0000 E_impro  =         0.0000 E_vdwl   =       735.2291 
E_coul   =     25357.3904 E_long   =    -30011.7079 Press    =       132.9692 
Volume   =     11062.1906 
SHAKE stats (type/ave/delta) on step 195000
  2 0.956944 1.24163e-05
  2 104.52 0.0011034
---------------- Step   195000 ----- CPU =   1381.9908 (sec) ----------------
TotEng   =     -3179.7957 KinEng   =       671.7164 Temp     =       311.2527 
PotEng   =     -3851.5121 E_bond   =         0.8546 E_angle  =         2.4898 
E_dihed  =         0.0000 E_impro  =         0.0000 E_vdwl   =       740.7689 
E_coul   =     25416.8512 E_long   =    -30012.4767 Press    =       827.7517 
Volume   =     10943.4543 
SHAKE stats (type/ave/delta) on step 200000
  2 0.956988 1.80726e-05
  2 104.52 0.00141103
---------------- Step   200000 ----- CPU =   1417.5976 (sec) ----------------
TotEng   =     -3263.3700 KinEng   =       664.1262 Temp     =       307.7356 
PotEng   =     -3927.4961 E_bond   =         0.7100 E_angle  =         1.0985 
E_dihed  =         0.0000 E_impro  =         0.0000 E_vdwl   =       757.3191 
E_coul   =     25325.2386 E_long   =    -30011.8623 Press    =       279.2297 
Volume   =     11308.9524 
SHAKE stats (type/ave/delta) on step 205000
  2 0.956975 4.88872e-06
  2 104.52 0.000457487
---------------- Step   205000 ----- CPU =   1452.8885 (sec) ----------------
TotEng   =     -3318.1475 KinEng   =       641.8114 Temp     =       297.3956 
PotEng   =     -3959.9589 E_bond   =         0.1948 E_angle  =         2.7521 
E_dihed  =         0.0000 E_impro  =         0.0000 E_vdwl   =       773.2124 
E_coul   =     25275.9588 E_long   =    -30012.0770 Press    =       771.0992 
Volume   =     10848.9437 
SHAKE stats (type/ave/delta) on step 210000
  2 0.956973 4.64134e-06
  2 104.52 0.000477932
---------------- Step   210000 ----- CPU =   1488.0872 (sec) ----------------
TotEng   =     -3303.3263 KinEng   =       642.9470 Temp     =       297.9218 
PotEng   =     -3946.2732 E_bond   =         0.1243 E_angle  =         3.7002 
E_dihed  =         0.0000 E_impro  =         0.0000 E_vdwl   =       710.0107 
E_coul   =     25350.8249 E_long   =    -30010.9332 Press    =      -608.9205 
Volume   =     10893.2736 
SHAKE stats (type/ave/delta) on step 215000
  2 0.957042 5.53754e-06
  2 104.52 0.000460912
---------------- Step   215000 ----- CPU =   1522.9334 (sec) ----------------
TotEng   =     -3274.0530 KinEng   =       652.7969 Temp     =       302.4859 
PotEng   =     -3926.8499 E_bond   =         0.3736 E_angle  =         2.4009 
E_dihed  =         0.0000 E_impro  =         0.0000 E_vdwl   =       759.0107 
E_coul   =     25323.3136 E_long   =    -30011.9487 Press    =       670.7365 
Volume   =     10814.6591 
SHAKE stats (type/ave/delta) on step 220000
  2 0.956995 5.49445e-06
  2 104.52 0.000492884
---------------- Step   220000 ----- CPU =   1559.1678 (sec) ----------------
TotEng   =     -3288.4551 KinEng   =       659.8229 Temp     =       305.7416 
PotEng   =     -3948.2780 E_bond   =         0.0339 E_angle  =         1.0742 
E_dihed  =         0.0000 E_impro  =         0.0000 E_vdwl   =       723.1791 
E_coul   =     25340.0302 E_long   =    -30012.5954 Press    =       153.0056 
Volume   =     10710.0487 
SHAKE stats (type/ave/delta) on step 225000
  2 0.956956 5.49034e-06
  2 104.52 0.0006028
---------------- Step   225000 ----- CPU =   1594.4115 (sec) ----------------
TotEng   =     -3312.9696 KinEng   =       607.6665 Temp     =       281.5739 
PotEng   =     -3920.6361 E_bond   =         0.2566 E_angle  =         2.5234 
E_dihed  =         0.0000 E_impro  =         0.0000 E_vdwl   =       762.2724 
E_coul   =     25321.9413 E_long   =    -30007.6297 Press    =       627.3119 
Volume   =     10827.4299 
SHAKE stats (type/ave/delta) on step 230000
  2 0.956966 5.21935e-06
  2 104.52 0.000372216
---------------- Step   230000 ----- CPU =   1630.4360 (sec) ----------------
TotEng   =     -3276.0943 KinEng   =       662.7793 Temp     =       307.1115 
PotEng   =     -3938.8735 E_bond   =         0.1506 E_angle  =         2.5310 
E_dihed  =         0.0000 E_impro  =         0.0000 E_vdwl   =       723.7980 
E_coul   =     25348.2557 E_long   =    -30013.6088 Press    =      -280.3113 
Volume   =     10936.7561 
SHAKE stats (type/ave/delta) on step 235000
  2 0.957086 6.97444e-06
  2 104.52 0.000576982
---------------- Step   235000 ----- CPU =   1666.5222 (sec) ----------------
TotEng   =     -3383.5714 KinEng   =       630.8112 Temp     =       292.2984 
PotEng   =     -4014.3826 E_bond   =         0.1599 E_angle  =         1.0391 
E_dihed  =         0.0000 E_impro  =         0.0000 E_vdwl   =       737.3436 
E_coul   =     25261.2521 E_long   =    -30014.1773 Press    =     -1154.2045 
Volume   =     11080.5429 
SHAKE stats (type/ave/delta) on step 240000
  2 0.956997 4.95774e-06
  2 104.52 0.000386294
---------------- Step   240000 ----- CPU =   1702.4615 (sec) ----------------
TotEng   =     -3270.2597 KinEng   =       653.8124 Temp     =       302.9565 
PotEng   =     -3924.0721 E_bond   =         0.0154 E_angle  =         1.1681 
E_dihed  =         0.0000 E_impro  =         0.0000 E_vdwl   =       724.2278 
E_coul   =     25364.1089 E_long   =    -30013.5923 Press    =      -181.5579 
Volume   =     11053.9521 
SHAKE stats (type/ave/delta) on step 245000
  2 0.95699 6.14871e-06
  2 104.52 0.000724531
---------------- Step   245000 ----- CPU =   1737.4337 (sec) ----------------
TotEng   =     -3328.3912 KinEng   =       670.4317 Temp     =       310.6574 
PotEng   =     -3998.8229 E_bond   =         0.1644 E_angle  =         2.4617 
E_dihed  =         0.0000 E_impro  =         0.0000 E_vdwl   =       786.3872 
E_coul   =     25223.1820 E_long   =    -30011.0181 Press    =       463.3352 
Volume   =     10944.1532 
SHAKE stats (type/ave/delta) on step 250000
  2 0.956976 4.69633e-06
  2 104.52 0.000443158
---------------- Step   250000 ----- CPU =   1772.2974 (sec) ----------------
TotEng   =     -3267.9203 KinEng   =       650.3098 Temp     =       301.3335 
PotEng   =     -3918.2301 E_bond   =         1.1113 E_angle  =         0.5557 
E_dihed  =         0.0000 E_impro  =         0.0000 E_vdwl   =       716.9507 
E_coul   =     25370.5711 E_long   =    -30007.4190 Press    =      -566.6859 
Volume   =     10901.2543 
Loop time of 1772.3 on 8 procs for 250000 steps with 1085 atoms

Pair  time (%) = 1258.69 (71.0202)
Bond  time (%) = 0.160719 (0.00906843)
Kspce time (%) = 279.291 (15.7587)
Neigh time (%) = 46.6351 (2.63134)
Comm  time (%) = 64.3968 (3.63352)
Outpt time (%) = 0.00270274 (0.000152499)
Other time (%) = 123.122 (6.94701)

FFT time (% of Kspce) = 24.6415 (8.82287)
FFT Gflps 3d (1d only) = 5.56359 35.418

Nlocal:    135.625 ave 150 max 128 min
Histogram: 3 1 1 0 0 1 1 0 0 1
Nghost:    4329.88 ave 4393 max 4268 min
Histogram: 1 0 1 1 2 1 0 0 1 1
Neighs:    51924.4 ave 60929 max 45074 min
Histogram: 1 1 1 1 2 0 0 1 0 1

Total # of neighbors = 415395
Ave neighs/atom = 382.853
Ave special neighs/atom = 2.00922
Neighbor list builds = 19823
Dangerous builds = 2433

reset_timestep 0

variable lambda equal ramp(0.0,1.0)

fix fADAPT all adapt 125000 pair lj/cut/tip4p/long/soft lambda 1*2 3*4 v_lambda after yes

variable dlambda equal 0.002

compute cFEP all fep ${temp} pair lj/cut/tip4p/long/soft lambda 1*2 3*4 v_dlambda
compute cFEP all fep 300 pair lj/cut/tip4p/long/soft lambda 1*2 3*4 v_dlambda

fix fFEP all ave/time 25 4000 125000 c_cFEP[1] c_cFEP[2] file fdti01.lmp

# compute cRDF all rdf 100 3 3 3 4 4 4
# fix fRDF all ave/time 2000 500 ${nsteps} c_cRDF file rdf.lammps mode vector

group owater type 3
360 atoms in group owater
compute cMSD owater msd
fix fMSD owater ave/time 1 1 ${ndump} c_cMSD[1] c_cMSD[2] c_cMSD[3] c_cMSD[4] file msd.lammps
fix fMSD owater ave/time 1 1 25000 c_cMSD[1] c_cMSD[2] c_cMSD[3] c_cMSD[4] file msd.lammps

dump dCONF all custom ${ndump} dump.lammpstrj id mol type element x y z ix iy iz
dump dCONF all custom 25000 dump.lammpstrj id mol type element x y z ix iy iz
dump_modify dCONF element C H O H

run ${nsteps}
run 2500000
PPPM initialization ...
  G vector (1/distance) = 0.285852
  grid = 15 15 15
  stencil order = 5
  estimated absolute RMS force accuracy = 0.0144749
  estimated relative force accuracy = 4.35908e-05
  using double precision FFTs
  3d grid and FFT values/proc = 2744 512
FEP settings ...
  temperature = 300.000000
  tail no
  lj/cut/tip4p/long/soft lambda 1-2 3-4
SHAKE stats (type/ave/delta) on step 0
  2 0.956976 4.69633e-06
  2 104.52 0.000443158
Memory usage per processor = 7.764 Mbytes
---------------- Step        0 ----- CPU =      0.0000 (sec) ----------------
TotEng   =     -3266.4271 KinEng   =       650.3098 Temp     =       301.3335 
PotEng   =     -3916.7369 E_bond   =         1.1113 E_angle  =         0.5557 
E_dihed  =         0.0000 E_impro  =         0.0000 E_vdwl   =       716.9507 
E_coul   =     27105.3599 E_long   =    -31740.7146 Press    =      -578.0936 
Volume   =     10901.2543 
SHAKE stats (type/ave/delta) on step 5000
  2 0.956991 5.27235e-06
  2 104.52 0.000439794
---------------- Step     5000 ----- CPU =     35.7030 (sec) ----------------
TotEng   =     -3253.2544 KinEng   =       659.3154 Temp     =       305.5064 
PotEng   =     -3912.5698 E_bond   =         0.0723 E_angle  =         0.7537 
E_dihed  =         0.0000 E_impro  =         0.0000 E_vdwl   =       689.0937 
E_coul   =     27140.4039 E_long   =    -31742.8933 Press    =      -490.7154 
Volume   =     10786.8325 
SHAKE stats (type/ave/delta) on step 10000
  2 0.957034 1.16072e-05
  2 104.52 0.00109189
---------------- Step    10000 ----- CPU =     70.4524 (sec) ----------------
TotEng   =     -3272.4686 KinEng   =       667.4840 Temp     =       309.2915 
PotEng   =     -3939.9526 E_bond   =         0.8157 E_angle  =         1.4694 
E_dihed  =         0.0000 E_impro  =         0.0000 E_vdwl   =       747.2886 
E_coul   =     27054.3297 E_long   =    -31743.8560 Press    =      -172.5374 
Volume   =     11089.1473 
SHAKE stats (type/ave/delta) on step 15000
  2 0.956993 4.16016e-06
  2 104.52 0.000375531
---------------- Step    15000 ----- CPU =    104.9786 (sec) ----------------
TotEng   =     -3288.7183 KinEng   =       695.3765 Temp     =       322.2160 
PotEng   =     -3984.0948 E_bond   =         0.1314 E_angle  =         2.2610 
E_dihed  =         0.0000 E_impro  =         0.0000 E_vdwl   =       775.0973 
E_coul   =     26983.8468 E_long   =    -31745.4313 Press    =       613.8775 
Volume   =     10825.0378 
SHAKE stats (type/ave/delta) on step 20000
  2 0.957065 7.3561e-06
  2 104.52 0.000627708
---------------- Step    20000 ----- CPU =    139.9047 (sec) ----------------
TotEng   =     -3294.6073 KinEng   =       625.4056 Temp     =       289.7937 
PotEng   =     -3920.0129 E_bond   =         0.3587 E_angle  =         1.2697 
E_dihed  =         0.0000 E_impro  =         0.0000 E_vdwl   =       758.4769 
E_coul   =     27065.3571 E_long   =    -31745.4754 Press    =      -249.2421 
Volume   =     11339.3988 
SHAKE stats (type/ave/delta) on step 25000
  2 0.957007 1.16371e-05
  2 104.52 0.00110664
---------------- Step    25000 ----- CPU =    175.1128 (sec) ----------------
TotEng   =     -3298.3186 KinEng   =       622.6239 Temp     =       288.5047 
PotEng   =     -3920.9425 E_bond   =         0.1645 E_angle  =         2.6884 
E_dihed  =         0.0000 E_impro  =         0.0000 E_vdwl   =       714.3326 
E_coul   =     27107.4159 E_long   =    -31745.5439 Press    =      -364.0298 
Volume   =     10932.9894 
SHAKE stats (type/ave/delta) on step 30000
  2 0.95696 4.08085e-06
  2 104.52 0.000364799
---------------- Step    30000 ----- CPU =    212.1797 (sec) ----------------
TotEng   =     -3323.6480 KinEng   =       633.0164 Temp     =       293.3203 
PotEng   =     -3956.6644 E_bond   =         0.2422 E_angle  =         2.0518 
E_dihed  =         0.0000 E_impro  =         0.0000 E_vdwl   =       741.2917 
E_coul   =     27046.3578 E_long   =    -31746.6079 Press    =      -133.2611 
Volume   =     10926.7359 
SHAKE stats (type/ave/delta) on step 35000
  2 0.957017 7.80365e-06
  2 104.52 0.00056474
---------------- Step    35000 ----- CPU =    249.8237 (sec) ----------------
TotEng   =     -3303.7953 KinEng   =       646.9810 Temp     =       299.7910 
PotEng   =     -3950.7763 E_bond   =         0.1913 E_angle  =         0.9460 
E_dihed  =         0.0000 E_impro  =         0.0000 E_vdwl   =       754.7161 
E_coul   =     27037.5188 E_long   =    -31744.1485 Press    =       382.7512 
Volume   =     10861.0866 
SHAKE stats (type/ave/delta) on step 40000
  2 0.957039 2.17969e-05
  2 104.52 0.0018889
---------------- Step    40000 ----- CPU =    286.2610 (sec) ----------------
TotEng   =     -3332.1693 KinEng   =       632.3014 Temp     =       292.9890 
PotEng   =     -3964.4707 E_bond   =         0.1321 E_angle  =         1.4767 
E_dihed  =         0.0000 E_impro  =         0.0000 E_vdwl   =       799.3191 
E_coul   =     26978.6646 E_long   =    -31744.0633 Press    =       444.2212 
Volume   =     11240.2920 
SHAKE stats (type/ave/delta) on step 45000
  2 0.956978 5.51614e-06
  2 104.52 0.000391487
---------------- Step    45000 ----- CPU =    323.2438 (sec) ----------------
TotEng   =     -3246.0636 KinEng   =       659.9729 Temp     =       305.8111 
PotEng   =     -3906.0365 E_bond   =         0.2484 E_angle  =         0.7562 
E_dihed  =         0.0000 E_impro  =         0.0000 E_vdwl   =       728.7517 
E_coul   =     27107.5780 E_long   =    -31743.3708 Press    =       128.6714 
Volume   =     10835.1212 
SHAKE stats (type/ave/delta) on step 50000
  2 0.956978 6.43775e-06
  2 104.52 0.000474868
---------------- Step    50000 ----- CPU =    360.8413 (sec) ----------------
TotEng   =     -3343.4208 KinEng   =       625.8311 Temp     =       289.9908 
PotEng   =     -3969.2518 E_bond   =         0.0910 E_angle  =         0.6812 
E_dihed  =         0.0000 E_impro  =         0.0000 E_vdwl   =       725.8922 
E_coul   =     27052.4255 E_long   =    -31748.3417 Press    =      -641.0686 
Volume   =     10859.2476 
SHAKE stats (type/ave/delta) on step 55000
  2 0.956999 6.59894e-06
  2 104.52 0.000839541
---------------- Step    55000 ----- CPU =    398.2524 (sec) ----------------
TotEng   =     -3304.8814 KinEng   =       644.6246 Temp     =       298.6991 
PotEng   =     -3949.5060 E_bond   =         0.2422 E_angle  =         0.6070 
E_dihed  =         0.0000 E_impro  =         0.0000 E_vdwl   =       703.3457 
E_coul   =     27094.0457 E_long   =    -31747.7466 Press    =      -537.3522 
Volume   =     10893.5127 
SHAKE stats (type/ave/delta) on step 60000
  2 0.956994 5.21631e-06
  2 104.52 0.00041963
---------------- Step    60000 ----- CPU =    436.0649 (sec) ----------------
TotEng   =     -3340.5822 KinEng   =       635.2566 Temp     =       294.3583 
PotEng   =     -3975.8388 E_bond   =         0.5311 E_angle  =         0.8185 
E_dihed  =         0.0000 E_impro  =         0.0000 E_vdwl   =       728.6012 
E_coul   =     27041.9464 E_long   =    -31747.7361 Press    =      -357.8701 
Volume   =     10948.3535 
SHAKE stats (type/ave/delta) on step 65000
  2 0.957012 6.33113e-06
  2 104.52 0.000483206
---------------- Step    65000 ----- CPU =    473.6065 (sec) ----------------
TotEng   =     -3290.1831 KinEng   =       640.8588 Temp     =       296.9542 
PotEng   =     -3931.0419 E_bond   =         0.3870 E_angle  =         0.9670 
E_dihed  =         0.0000 E_impro  =         0.0000 E_vdwl   =       699.7346 
E_coul   =     27116.4678 E_long   =    -31748.5983 Press    =      -971.8132 
Volume   =     11004.7855 
SHAKE stats (type/ave/delta) on step 70000
  2 0.957041 5.53598e-06
  2 104.52 0.000451709
---------------- Step    70000 ----- CPU =    510.9941 (sec) ----------------
TotEng   =     -3359.2104 KinEng   =       656.0587 Temp     =       303.9974 
PotEng   =     -4015.2691 E_bond   =         0.4417 E_angle  =         0.8846 
E_dihed  =         0.0000 E_impro  =         0.0000 E_vdwl   =       813.8607 
E_coul   =     26916.9955 E_long   =    -31747.4516 Press    =       642.8037 
Volume   =     11114.1687 
SHAKE stats (type/ave/delta) on step 75000
  2 0.957019 7.75577e-06
  2 104.52 0.0008997
---------------- Step    75000 ----- CPU =    548.0977 (sec) ----------------
TotEng   =     -3301.0902 KinEng   =       611.0283 Temp     =       283.1317 
PotEng   =     -3912.1185 E_bond   =         0.3225 E_angle  =         1.5351 
E_dihed  =         0.0000 E_impro  =         0.0000 E_vdwl   =       716.9111 
E_coul   =     27111.1547 E_long   =    -31742.0420 Press    =      -257.3284 
Volume   =     10809.6611 
SHAKE stats (type/ave/delta) on step 80000
  2 0.95702 5.43997e-06
  2 104.52 0.000441821
---------------- Step    80000 ----- CPU =    585.3540 (sec) ----------------
TotEng   =     -3235.3475 KinEng   =       664.4458 Temp     =       307.8837 
PotEng   =     -3899.7933 E_bond   =         0.0394 E_angle  =         0.8143 
E_dihed  =         0.0000 E_impro  =         0.0000 E_vdwl   =       779.1208 
E_coul   =     27061.8556 E_long   =    -31741.6234 Press    =       933.7123 
Volume   =     11070.3168 
SHAKE stats (type/ave/delta) on step 85000
  2 0.956993 4.58082e-06
  2 104.52 0.000401482
---------------- Step    85000 ----- CPU =    622.8524 (sec) ----------------
TotEng   =     -3290.3170 KinEng   =       649.5948 Temp     =       301.0022 
PotEng   =     -3939.9118 E_bond   =         0.3831 E_angle  =         0.8280 
E_dihed  =         0.0000 E_impro  =         0.0000 E_vdwl   =       746.1647 
E_coul   =     27055.1093 E_long   =    -31742.3969 Press    =      -193.8507 
Volume   =     11164.1935 
SHAKE stats (type/ave/delta) on step 90000
  2 0.956996 1.50341e-05
  2 104.52 0.00135965
---------------- Step    90000 ----- CPU =    660.6633 (sec) ----------------
TotEng   =     -3313.9188 KinEng   =       628.0448 Temp     =       291.0166 
PotEng   =     -3941.9636 E_bond   =         0.2616 E_angle  =         0.9176 
E_dihed  =         0.0000 E_impro  =         0.0000 E_vdwl   =       752.3991 
E_coul   =     27049.8340 E_long   =    -31745.3759 Press    =      -405.5688 
Volume   =     11233.0721 
SHAKE stats (type/ave/delta) on step 95000
  2 0.956964 4.57095e-06
  2 104.52 0.000477599
---------------- Step    95000 ----- CPU =    697.6141 (sec) ----------------
TotEng   =     -3294.2357 KinEng   =       646.9621 Temp     =       299.7823 
PotEng   =     -3941.1977 E_bond   =         0.1586 E_angle  =         0.9743 
E_dihed  =         0.0000 E_impro  =         0.0000 E_vdwl   =       775.5521 
E_coul   =     27026.2649 E_long   =    -31744.1477 Press    =      1049.3853 
Volume   =     10661.4522 
SHAKE stats (type/ave/delta) on step 100000
  2 0.957058 4.46646e-06
  2 104.52 0.00042715
---------------- Step   100000 ----- CPU =    734.4813 (sec) ----------------
TotEng   =     -3278.9757 KinEng   =       651.9594 Temp     =       302.0979 
PotEng   =     -3930.9351 E_bond   =         0.3278 E_angle  =         1.1465 
E_dihed  =         0.0000 E_impro  =         0.0000 E_vdwl   =       705.5396 
E_coul   =     27108.3699 E_long   =    -31746.3189 Press    =      -781.5199 
Volume   =     10969.3529 
SHAKE stats (type/ave/delta) on step 105000
  2 0.95699 6.06786e-06
  2 104.52 0.000476812
---------------- Step   105000 ----- CPU =    772.4345 (sec) ----------------
TotEng   =     -3215.7994 KinEng   =       663.4175 Temp     =       307.4072 
PotEng   =     -3879.2168 E_bond   =         0.5667 E_angle  =         0.9771 
E_dihed  =         0.0000 E_impro  =         0.0000 E_vdwl   =       703.1338 
E_coul   =     27158.3024 E_long   =    -31742.1967 Press    =      -284.8967 
Volume   =     11070.9893 
SHAKE stats (type/ave/delta) on step 110000
  2 0.956989 4.51346e-06
  2 104.52 0.000400402
---------------- Step   110000 ----- CPU =    810.6681 (sec) ----------------
TotEng   =     -3282.9912 KinEng   =       683.1843 Temp     =       316.5665 
PotEng   =     -3966.1755 E_bond   =         0.1559 E_angle  =         0.4330 
E_dihed  =         0.0000 E_impro  =         0.0000 E_vdwl   =       742.2900 
E_coul   =     27036.6383 E_long   =    -31745.6926 Press    =        55.5729 
Volume   =     10929.8659 
SHAKE stats (type/ave/delta) on step 115000
  2 0.957027 9.94608e-06
  2 104.52 0.000739131
---------------- Step   115000 ----- CPU =    848.3138 (sec) ----------------
TotEng   =     -3335.3456 KinEng   =       643.0236 Temp     =       297.9573 
PotEng   =     -3978.3691 E_bond   =         0.2701 E_angle  =         1.3460 
E_dihed  =         0.0000 E_impro  =         0.0000 E_vdwl   =       776.5838 
E_coul   =     26987.5316 E_long   =    -31744.1007 Press    =       724.3727 
Volume   =     10681.7963 
SHAKE stats (type/ave/delta) on step 120000
  2 0.957004 1.86227e-05
  2 104.52 0.000943922
---------------- Step   120000 ----- CPU =    884.4155 (sec) ----------------
TotEng   =     -3318.7144 KinEng   =       659.9869 Temp     =       305.8176 
PotEng   =     -3978.7014 E_bond   =         0.3627 E_angle  =         1.3984 
E_dihed  =         0.0000 E_impro  =         0.0000 E_vdwl   =       690.5864 
E_coul   =     27077.5312 E_long   =    -31748.5800 Press    =     -1915.4277 
Volume   =     11352.1569 
SHAKE stats (type/ave/delta) on step 125000
  2 0.957038 6.33905e-06
  2 104.52 0.000535518
---------------- Step   125000 ----- CPU =    921.9315 (sec) ----------------
TotEng   =     -3309.1700 KinEng   =       652.4085 Temp     =       302.3060 
PotEng   =     -3961.5785 E_bond   =         0.6656 E_angle  =         1.7007 
E_dihed  =         0.0000 E_impro  =         0.0000 E_vdwl   =       758.9525 
E_coul   =     27022.4481 E_long   =    -31745.3454 Press    =        50.2571 
Volume   =     10897.3075 
SHAKE stats (type/ave/delta) on step 130000
  2 0.957016 5.3844e-06
  2 104.52 0.000372769
---------------- Step   130000 ----- CPU =    957.2168 (sec) ----------------
TotEng   =     -3310.3724 KinEng   =       629.5724 Temp     =       291.7244 
PotEng   =     -3939.9448 E_bond   =         0.1602 E_angle  =         1.7551 
E_dihed  =         0.0000 E_impro  =         0.0000 E_vdwl   =       743.5962 
E_coul   =     27060.3440 E_long   =    -31745.8003 Press    =      -100.6428 
Volume   =     11003.8787 
SHAKE stats (type/ave/delta) on step 135000
  2 0.957037 9.63744e-06
  2 104.52 0.00076337
---------------- Step   135000 ----- CPU =    992.1660 (sec) ----------------
TotEng   =     -3321.6099 KinEng   =       639.6991 Temp     =       296.4168 
PotEng   =     -3961.3090 E_bond   =         0.3037 E_angle  =         1.9161 
E_dihed  =         0.0000 E_impro  =         0.0000 E_vdwl   =       754.5815 
E_coul   =     27027.4016 E_long   =    -31745.5119 Press    =       164.8724 
Volume   =     10954.8671 
SHAKE stats (type/ave/delta) on step 140000
  2 0.95701 4.41567e-06
  2 104.52 0.000415333
---------------- Step   140000 ----- CPU =   1027.7220 (sec) ----------------
TotEng   =     -3297.0715 KinEng   =       658.6486 Temp     =       305.1974 
PotEng   =     -3955.7201 E_bond   =         0.2169 E_angle  =         1.4926 
E_dihed  =         0.0000 E_impro  =         0.0000 E_vdwl   =       731.4510 
E_coul   =     27057.6450 E_long   =    -31746.5255 Press    =      -329.4493 
Volume   =     10857.1134 
SHAKE stats (type/ave/delta) on step 145000
  2 0.956976 9.39713e-06
  2 104.52 0.0010382
---------------- Step   145000 ----- CPU =   1062.7286 (sec) ----------------
TotEng   =     -3257.4171 KinEng   =       680.0064 Temp     =       315.0940 
PotEng   =     -3937.4235 E_bond   =         1.1881 E_angle  =         2.6738 
E_dihed  =         0.0000 E_impro  =         0.0000 E_vdwl   =       691.6346 
E_coul   =     27114.5578 E_long   =    -31747.4777 Press    =      -230.8009 
Volume   =     10611.0825 
SHAKE stats (type/ave/delta) on step 150000
  2 0.957013 9.27429e-06
  2 104.52 0.000559036
---------------- Step   150000 ----- CPU =   1097.3957 (sec) ----------------
TotEng   =     -3220.5796 KinEng   =       663.0477 Temp     =       307.2359 
PotEng   =     -3883.6274 E_bond   =         0.4803 E_angle  =         0.6657 
E_dihed  =         0.0000 E_impro  =         0.0000 E_vdwl   =       712.1256 
E_coul   =     27144.8035 E_long   =    -31741.7025 Press    =      -147.8516 
Volume   =     10997.4495 
SHAKE stats (type/ave/delta) on step 155000
  2 0.956949 8.23836e-06
  2 104.52 0.000582612
---------------- Step   155000 ----- CPU =   1133.8846 (sec) ----------------
TotEng   =     -3302.1975 KinEng   =       637.3373 Temp     =       295.3224 
PotEng   =     -3939.5348 E_bond   =         0.4920 E_angle  =         0.7017 
E_dihed  =         0.0000 E_impro  =         0.0000 E_vdwl   =       710.4784 
E_coul   =     27095.3506 E_long   =    -31746.5575 Press    =      -646.0562 
Volume   =     10954.0488 
SHAKE stats (type/ave/delta) on step 160000
  2 0.957024 8.75963e-06
  2 104.52 0.00104989
---------------- Step   160000 ----- CPU =   1169.9282 (sec) ----------------
TotEng   =     -3285.5605 KinEng   =       661.8181 Temp     =       306.6661 
PotEng   =     -3947.3785 E_bond   =         0.2140 E_angle  =         0.9785 
E_dihed  =         0.0000 E_impro  =         0.0000 E_vdwl   =       737.4647 
E_coul   =     27060.7611 E_long   =    -31746.7968 Press    =       575.1244 
Volume   =     10551.7155 
SHAKE stats (type/ave/delta) on step 165000
  2 0.956997 1.09975e-05
  2 104.52 0.000708881
---------------- Step   165000 ----- CPU =   1206.1083 (sec) ----------------
TotEng   =     -3303.1981 KinEng   =       664.9619 Temp     =       308.1228 
PotEng   =     -3968.1600 E_bond   =         0.1177 E_angle  =         0.9321 
E_dihed  =         0.0000 E_impro  =         0.0000 E_vdwl   =       692.2118 
E_coul   =     27081.8963 E_long   =    -31743.3179 Press    =     -1454.9451 
Volume   =     11291.5059 
SHAKE stats (type/ave/delta) on step 170000
  2 0.956993 6.71856e-06
  2 104.52 0.00081263
---------------- Step   170000 ----- CPU =   1243.0006 (sec) ----------------
TotEng   =     -3247.8573 KinEng   =       643.0861 Temp     =       297.9863 
PotEng   =     -3890.9435 E_bond   =         0.2049 E_angle  =         1.4732 
E_dihed  =         0.0000 E_impro  =         0.0000 E_vdwl   =       700.1707 
E_coul   =     27151.7156 E_long   =    -31744.5079 Press    =      -204.9149 
Volume   =     10775.7399 
SHAKE stats (type/ave/delta) on step 175000
  2 0.956966 7.57297e-06
  2 104.52 0.000548512
---------------- Step   175000 ----- CPU =   1280.3442 (sec) ----------------
TotEng   =     -3292.5946 KinEng   =       621.6929 Temp     =       288.0733 
PotEng   =     -3914.2875 E_bond   =         0.2185 E_angle  =         0.8223 
E_dihed  =         0.0000 E_impro  =         0.0000 E_vdwl   =       748.3194 
E_coul   =     27082.1404 E_long   =    -31745.7882 Press    =       505.7330 
Volume   =     10734.0431 
SHAKE stats (type/ave/delta) on step 180000
  2 0.957026 8.87672e-06
  2 104.52 0.000785052
---------------- Step   180000 ----- CPU =   1317.9049 (sec) ----------------
TotEng   =     -3315.0287 KinEng   =       628.4114 Temp     =       291.1865 
PotEng   =     -3943.4401 E_bond   =         0.1811 E_angle  =         1.7725 
E_dihed  =         0.0000 E_impro  =         0.0000 E_vdwl   =       764.4502 
E_coul   =     27035.7567 E_long   =    -31745.6007 Press    =       734.4797 
Volume   =     10695.8573 
SHAKE stats (type/ave/delta) on step 185000
  2 0.956966 4.50823e-06
  2 104.52 0.000410992
---------------- Step   185000 ----- CPU =   1355.3482 (sec) ----------------
TotEng   =     -3290.1756 KinEng   =       605.5289 Temp     =       280.5834 
PotEng   =     -3895.7045 E_bond   =         0.3078 E_angle  =         1.2435 
E_dihed  =         0.0000 E_impro  =         0.0000 E_vdwl   =       727.2470 
E_coul   =     27119.5736 E_long   =    -31744.0764 Press    =       378.6053 
Volume   =     10888.2259 
SHAKE stats (type/ave/delta) on step 190000
  2 0.957009 6.63003e-06
  2 104.52 0.00046261
---------------- Step   190000 ----- CPU =   1392.1310 (sec) ----------------
TotEng   =     -3302.0585 KinEng   =       664.2058 Temp     =       307.7725 
PotEng   =     -3966.2643 E_bond   =         0.0546 E_angle  =         0.8364 
E_dihed  =         0.0000 E_impro  =         0.0000 E_vdwl   =       725.5444 
E_coul   =     27050.6203 E_long   =    -31743.3200 Press    =      -658.4223 
Volume   =     10984.6708 
SHAKE stats (type/ave/delta) on step 195000
  2 0.956978 5.16964e-06
  2 104.52 0.000383172
---------------- Step   195000 ----- CPU =   1428.8966 (sec) ----------------
TotEng   =     -3242.2196 KinEng   =       673.8825 Temp     =       312.2564 
PotEng   =     -3916.1022 E_bond   =         0.8837 E_angle  =         0.9977 
E_dihed  =         0.0000 E_impro  =         0.0000 E_vdwl   =       713.1084 
E_coul   =     27112.9099 E_long   =    -31744.0019 Press    =      -481.5689 
Volume   =     10901.1470 
SHAKE stats (type/ave/delta) on step 200000
  2 0.956974 1.00662e-05
  2 104.52 0.000704828
---------------- Step   200000 ----- CPU =   1464.5266 (sec) ----------------
TotEng   =     -3307.2149 KinEng   =       597.5954 Temp     =       276.9073 
PotEng   =     -3904.8104 E_bond   =         0.1544 E_angle  =         1.4752 
E_dihed  =         0.0000 E_impro  =         0.0000 E_vdwl   =       739.3723 
E_coul   =     27095.3538 E_long   =    -31741.1661 Press    =       128.3075 
Volume   =     10955.5924 
SHAKE stats (type/ave/delta) on step 205000
  2 0.957027 5.57335e-06
  2 104.52 0.000383049
---------------- Step   205000 ----- CPU =   1501.5052 (sec) ----------------
TotEng   =     -3357.1037 KinEng   =       620.7466 Temp     =       287.6348 
PotEng   =     -3977.8504 E_bond   =         0.1759 E_angle  =         2.9827 
E_dihed  =         0.0000 E_impro  =         0.0000 E_vdwl   =       793.7904 
E_coul   =     26970.3406 E_long   =    -31745.1400 Press    =       669.7748 
Volume   =     10908.6917 
SHAKE stats (type/ave/delta) on step 210000
  2 0.957026 1.10029e-05
  2 104.52 0.000659241
---------------- Step   210000 ----- CPU =   1539.1177 (sec) ----------------
TotEng   =     -3259.7837 KinEng   =       656.8743 Temp     =       304.3753 
PotEng   =     -3916.6579 E_bond   =         2.3162 E_angle  =         1.5733 
E_dihed  =         0.0000 E_impro  =         0.0000 E_vdwl   =       745.6324 
E_coul   =     27074.0884 E_long   =    -31740.2682 Press    =       691.4116 
Volume   =     10752.7944 
SHAKE stats (type/ave/delta) on step 215000
  2 0.957008 5.0461e-06
  2 104.52 0.000411229
---------------- Step   215000 ----- CPU =   1575.9816 (sec) ----------------
TotEng   =     -3288.1229 KinEng   =       651.4842 Temp     =       301.8777 
PotEng   =     -3939.6070 E_bond   =         0.3327 E_angle  =         1.6906 
E_dihed  =         0.0000 E_impro  =         0.0000 E_vdwl   =       693.5937 
E_coul   =     27111.7569 E_long   =    -31746.9809 Press    =      -861.4263 
Volume   =     10872.1098 
SHAKE stats (type/ave/delta) on step 220000
  2 0.95708 1.24951e-05
  2 104.52 0.00101096
---------------- Step   220000 ----- CPU =   1613.3200 (sec) ----------------
TotEng   =     -3247.6650 KinEng   =       670.4227 Temp     =       310.6532 
PotEng   =     -3918.0877 E_bond   =         0.3089 E_angle  =         0.6899 
E_dihed  =         0.0000 E_impro  =         0.0000 E_vdwl   =       725.1255 
E_coul   =     27101.2173 E_long   =    -31745.4292 Press    =       113.6797 
Volume   =     10751.7026 
SHAKE stats (type/ave/delta) on step 225000
  2 0.956979 6.8916e-06
  2 104.52 0.000432593
---------------- Step   225000 ----- CPU =   1651.3223 (sec) ----------------
TotEng   =     -3323.3248 KinEng   =       637.3339 Temp     =       295.3209 
PotEng   =     -3960.6587 E_bond   =         0.1130 E_angle  =         2.5176 
E_dihed  =         0.0000 E_impro  =         0.0000 E_vdwl   =       717.3993 
E_coul   =     27062.3232 E_long   =    -31743.0118 Press    =      -623.0168 
Volume   =     10931.7356 
SHAKE stats (type/ave/delta) on step 230000
  2 0.956988 8.35685e-06
  2 104.52 0.000584977
---------------- Step   230000 ----- CPU =   1687.7784 (sec) ----------------
TotEng   =     -3340.7481 KinEng   =       645.1611 Temp     =       298.9478 
PotEng   =     -3985.9092 E_bond   =         0.1457 E_angle  =         1.3159 
E_dihed  =         0.0000 E_impro  =         0.0000 E_vdwl   =       761.0792 
E_coul   =     26997.1128 E_long   =    -31745.5628 Press    =         0.7544 
Volume   =     10864.2901 
SHAKE stats (type/ave/delta) on step 235000
  2 0.95703 7.33807e-06
  2 104.52 0.000477143
---------------- Step   235000 ----- CPU =   1724.7097 (sec) ----------------
TotEng   =     -3317.5704 KinEng   =       636.7427 Temp     =       295.0470 
PotEng   =     -3954.3131 E_bond   =         0.3520 E_angle  =         0.8073 
E_dihed  =         0.0000 E_impro  =         0.0000 E_vdwl   =       723.5658 
E_coul   =     27062.3962 E_long   =    -31741.4344 Press    =      -513.4960 
Volume   =     11010.9989 
SHAKE stats (type/ave/delta) on step 240000
  2 0.957009 9.76817e-06
  2 104.52 0.000590517
---------------- Step   240000 ----- CPU =   1762.0124 (sec) ----------------
TotEng   =     -3278.4237 KinEng   =       634.0656 Temp     =       293.8064 
PotEng   =     -3912.4893 E_bond   =         0.0713 E_angle  =         0.7303 
E_dihed  =         0.0000 E_impro  =         0.0000 E_vdwl   =       684.0026 
E_coul   =     27149.5084 E_long   =    -31746.8018 Press    =      -503.6154 
Volume   =     10731.9126 
SHAKE stats (type/ave/delta) on step 245000
  2 0.95702 9.06446e-06
  2 104.52 0.000826564
---------------- Step   245000 ----- CPU =   1798.7849 (sec) ----------------
TotEng   =     -3269.0722 KinEng   =       642.1964 Temp     =       297.5740 
PotEng   =     -3911.2686 E_bond   =         0.2936 E_angle  =         1.8399 
E_dihed  =         0.0000 E_impro  =         0.0000 E_vdwl   =       739.9272 
E_coul   =     27090.8795 E_long   =    -31744.2087 Press    =       511.3227 
Volume   =     10856.6890 
SHAKE stats (type/ave/delta) on step 250000
  2 0.957011 6.58998e-06
  2 104.52 0.000564906
---------------- Step   250000 ----- CPU =   1834.9556 (sec) ----------------
TotEng   =     -3289.7428 KinEng   =       651.4942 Temp     =       301.8823 
PotEng   =     -3941.2370 E_bond   =         0.2719 E_angle  =         1.1972 
E_dihed  =         0.0000 E_impro  =         0.0000 E_vdwl   =       799.9915 
E_coul   =     26998.6309 E_long   =    -31741.3284 Press    =      1525.1939 
Volume   =     10600.4588 
SHAKE stats (type/ave/delta) on step 255000
  2 0.956983 7.55748e-06
  2 104.52 0.000716929
---------------- Step   255000 ----- CPU =   1869.8300 (sec) ----------------
TotEng   =     -3283.2924 KinEng   =       618.7361 Temp     =       286.7032 
PotEng   =     -3902.0285 E_bond   =         0.0074 E_angle  =         1.5225 
E_dihed  =         0.0000 E_impro  =         0.0000 E_vdwl   =       708.0704 
E_coul   =     27134.7596 E_long   =    -31746.3885 Press    =      -536.3416 
Volume   =     10912.7876 
SHAKE stats (type/ave/delta) on step 260000
  2 0.956971 1.66252e-05
  2 104.52 0.00137105
---------------- Step   260000 ----- CPU =   1906.3264 (sec) ----------------
TotEng   =     -3302.9572 KinEng   =       618.3573 Temp     =       286.5277 
PotEng   =     -3921.3145 E_bond   =         0.0943 E_angle  =         1.6312 
E_dihed  =         0.0000 E_impro  =         0.0000 E_vdwl   =       686.1471 
E_coul   =     27137.3412 E_long   =    -31746.5283 Press    =      -824.5108 
Volume   =     10890.5337 
SHAKE stats (type/ave/delta) on step 265000
  2 0.95703 9.71735e-06
  2 104.52 0.000834074
---------------- Step   265000 ----- CPU =   1941.0547 (sec) ----------------
TotEng   =     -3306.2947 KinEng   =       636.6728 Temp     =       295.0145 
PotEng   =     -3942.9674 E_bond   =         0.3101 E_angle  =         0.6938 
E_dihed  =         0.0000 E_impro  =         0.0000 E_vdwl   =       744.7186 
E_coul   =     27053.6375 E_long   =    -31742.3274 Press    =       -39.5728 
Volume   =     10889.1589 
SHAKE stats (type/ave/delta) on step 270000
  2 0.95696 5.00834e-06
  2 104.52 0.000576803
---------------- Step   270000 ----- CPU =   1975.7905 (sec) ----------------
TotEng   =     -3314.8705 KinEng   =       653.9668 Temp     =       303.0280 
PotEng   =     -3968.8373 E_bond   =         0.2799 E_angle  =         0.9747 
E_dihed  =         0.0000 E_impro  =         0.0000 E_vdwl   =       760.3338 
E_coul   =     27012.8690 E_long   =    -31743.2946 Press    =       -86.3026 
Volume   =     11151.4426 
SHAKE stats (type/ave/delta) on step 275000
  2 0.95691 5.86302e-06
  2 104.52 0.000516928
---------------- Step   275000 ----- CPU =   2010.4348 (sec) ----------------
TotEng   =     -3297.4385 KinEng   =       652.4168 Temp     =       302.3098 
PotEng   =     -3949.8553 E_bond   =         0.0770 E_angle  =         0.7268 
E_dihed  =         0.0000 E_impro  =         0.0000 E_vdwl   =       764.0205 
E_coul   =     27030.1751 E_long   =    -31744.8546 Press    =       765.9606 
Volume   =     10776.4227 
SHAKE stats (type/ave/delta) on step 280000
  2 0.957044 1.40248e-05
  2 104.52 0.000814989
---------------- Step   280000 ----- CPU =   2047.3110 (sec) ----------------
TotEng   =     -3315.0505 KinEng   =       610.9978 Temp     =       283.1176 
PotEng   =     -3926.0484 E_bond   =         0.0946 E_angle  =         1.1066 
E_dihed  =         0.0000 E_impro  =         0.0000 E_vdwl   =       767.4958 
E_coul   =     27051.3580 E_long   =    -31746.1032 Press    =       398.4597 
Volume   =     11032.1873 
SHAKE stats (type/ave/delta) on step 285000
  2 0.957007 6.59925e-06
  2 104.52 0.000429144
---------------- Step   285000 ----- CPU =   2084.5901 (sec) ----------------
TotEng   =     -3275.7329 KinEng   =       638.4700 Temp     =       295.8473 
PotEng   =     -3914.2028 E_bond   =         0.3928 E_angle  =         1.2188 
E_dihed  =         0.0000 E_impro  =         0.0000 E_vdwl   =       703.0349 
E_coul   =     27125.4337 E_long   =    -31744.2830 Press    =      -427.5031 
Volume   =     10901.6337 
SHAKE stats (type/ave/delta) on step 290000
  2 0.956991 9.67506e-06
  2 104.52 0.000937207
---------------- Step   290000 ----- CPU =   2121.5752 (sec) ----------------
TotEng   =     -3315.7675 KinEng   =       668.0425 Temp     =       309.5503 
PotEng   =     -3983.8100 E_bond   =         0.0542 E_angle  =         1.4734 
E_dihed  =         0.0000 E_impro  =         0.0000 E_vdwl   =       766.9457 
E_coul   =     26993.2109 E_long   =    -31745.4942 Press    =       631.9465 
Volume   =     10849.1749 
SHAKE stats (type/ave/delta) on step 295000
  2 0.957001 5.24344e-06
  2 104.52 0.000511956
---------------- Step   295000 ----- CPU =   2158.9378 (sec) ----------------
TotEng   =     -3280.8670 KinEng   =       659.0346 Temp     =       305.3763 
PotEng   =     -3939.9016 E_bond   =         0.1035 E_angle  =         0.7347 
E_dihed  =         0.0000 E_impro  =         0.0000 E_vdwl   =       765.3499 
E_coul   =     27039.5503 E_long   =    -31745.6398 Press    =       591.4086 
Volume   =     10909.5138 
SHAKE stats (type/ave/delta) on step 300000
  2 0.957051 8.1363e-06
  2 104.52 0.000732939
---------------- Step   300000 ----- CPU =   2196.2157 (sec) ----------------
TotEng   =     -3370.0187 KinEng   =       609.3517 Temp     =       282.3548 
PotEng   =     -3979.3703 E_bond   =         0.3385 E_angle  =         0.6556 
E_dihed  =         0.0000 E_impro  =         0.0000 E_vdwl   =       739.4875 
E_coul   =     27021.9184 E_long   =    -31741.7703 Press    =      -605.3502 
Volume   =     10966.7394 
SHAKE stats (type/ave/delta) on step 305000
  2 0.957038 8.22832e-06
  2 104.52 0.000709529
---------------- Step   305000 ----- CPU =   2234.2801 (sec) ----------------
TotEng   =     -3261.9828 KinEng   =       688.2197 Temp     =       318.8998 
PotEng   =     -3950.2025 E_bond   =         0.1055 E_angle  =         0.3189 
E_dihed  =         0.0000 E_impro  =         0.0000 E_vdwl   =       748.3089 
E_coul   =     27047.0477 E_long   =    -31745.9836 Press    =       354.9925 
Volume   =     10888.4059 
SHAKE stats (type/ave/delta) on step 310000
  2 0.956941 9.74143e-06
  2 104.52 0.00104982
---------------- Step   310000 ----- CPU =   2271.2878 (sec) ----------------
TotEng   =     -3292.9167 KinEng   =       651.8179 Temp     =       302.0323 
PotEng   =     -3944.7345 E_bond   =         0.0835 E_angle  =         0.7202 
E_dihed  =         0.0000 E_impro  =         0.0000 E_vdwl   =       812.4429 
E_coul   =     26986.9001 E_long   =    -31744.8813 Press    =      1572.0538 
Volume   =     10940.9135 
SHAKE stats (type/ave/delta) on step 315000
  2 0.957017 5.58869e-06
  2 104.52 0.000590821
---------------- Step   315000 ----- CPU =   2308.6316 (sec) ----------------
TotEng   =     -3296.2170 KinEng   =       660.5128 Temp     =       306.0613 
PotEng   =     -3956.7299 E_bond   =         0.1494 E_angle  =         1.0586 
E_dihed  =         0.0000 E_impro  =         0.0000 E_vdwl   =       692.8919 
E_coul   =     27095.0240 E_long   =    -31745.8537 Press    =     -1002.4789 
Volume   =     10931.0865 
SHAKE stats (type/ave/delta) on step 320000
  2 0.956991 7.16525e-06
  2 104.52 0.000768347
---------------- Step   320000 ----- CPU =   2346.3070 (sec) ----------------
TotEng   =     -3292.2020 KinEng   =       669.7748 Temp     =       310.3530 
PotEng   =     -3961.9768 E_bond   =         0.1749 E_angle  =         0.9265 
E_dihed  =         0.0000 E_impro  =         0.0000 E_vdwl   =       716.9256 
E_coul   =     27065.3320 E_long   =    -31745.3359 Press    =      -547.0671 
Volume   =     10769.7433 
SHAKE stats (type/ave/delta) on step 325000
  2 0.957012 7.53175e-06
  2 104.52 0.000506797
---------------- Step   325000 ----- CPU =   2383.5302 (sec) ----------------
TotEng   =     -3224.1026 KinEng   =       664.3185 Temp     =       307.8247 
PotEng   =     -3888.4211 E_bond   =         0.3727 E_angle  =         0.8130 
E_dihed  =         0.0000 E_impro  =         0.0000 E_vdwl   =       711.6644 
E_coul   =     27143.7456 E_long   =    -31745.0168 Press    =      -148.1205 
Volume   =     10915.5805 
SHAKE stats (type/ave/delta) on step 330000
  2 0.956997 1.08727e-05
  2 104.52 0.000842822
---------------- Step   330000 ----- CPU =   2420.0948 (sec) ----------------
TotEng   =     -3303.0289 KinEng   =       633.0312 Temp     =       293.3271 
PotEng   =     -3936.0601 E_bond   =         0.1304 E_angle  =         0.7892 
E_dihed  =         0.0000 E_impro  =         0.0000 E_vdwl   =       714.5413 
E_coul   =     27092.9181 E_long   =    -31744.4391 Press    =      -356.2352 
Volume   =     10752.1871 
SHAKE stats (type/ave/delta) on step 335000
  2 0.956998 7.42437e-06
  2 104.52 0.000498889
---------------- Step   335000 ----- CPU =   2457.3604 (sec) ----------------
TotEng   =     -3243.6106 KinEng   =       619.1121 Temp     =       286.8774 
PotEng   =     -3862.7227 E_bond   =         1.0545 E_angle  =         0.4212 
E_dihed  =         0.0000 E_impro  =         0.0000 E_vdwl   =       709.9337 
E_coul   =     27172.5891 E_long   =    -31746.7211 Press    =      -356.2768 
Volume   =     11050.2392 
SHAKE stats (type/ave/delta) on step 340000
  2 0.956957 5.24988e-06
  2 104.52 0.000500554
---------------- Step   340000 ----- CPU =   2494.5920 (sec) ----------------
TotEng   =     -3235.6224 KinEng   =       656.3387 Temp     =       304.1271 
PotEng   =     -3891.9610 E_bond   =         0.1555 E_angle  =         0.8824 
E_dihed  =         0.0000 E_impro  =         0.0000 E_vdwl   =       682.8077 
E_coul   =     27168.2428 E_long   =    -31744.0494 Press    =      -846.6677 
Volume   =     11065.6611 
SHAKE stats (type/ave/delta) on step 345000
  2 0.957015 6.83373e-06
  2 104.52 0.000445319
---------------- Step   345000 ----- CPU =   2531.3440 (sec) ----------------
TotEng   =     -3246.4838 KinEng   =       637.1042 Temp     =       295.2145 
PotEng   =     -3883.5880 E_bond   =         0.1663 E_angle  =         1.6224 
E_dihed  =         0.0000 E_impro  =         0.0000 E_vdwl   =       754.1212 
E_coul   =     27104.9414 E_long   =    -31744.4394 Press    =       238.1773 
Volume   =     11187.4479 
SHAKE stats (type/ave/delta) on step 350000
  2 0.956982 8.44633e-06
  2 104.52 0.000807441
---------------- Step   350000 ----- CPU =   2568.2952 (sec) ----------------
TotEng   =     -3323.6981 KinEng   =       657.7417 Temp     =       304.7772 
PotEng   =     -3981.4398 E_bond   =         0.1104 E_angle  =         1.2268 
E_dihed  =         0.0000 E_impro  =         0.0000 E_vdwl   =       785.2851 
E_coul   =     26976.1947 E_long   =    -31744.2567 Press    =       951.1088 
Volume   =     10727.1152 
SHAKE stats (type/ave/delta) on step 355000
  2 0.956973 1.00333e-05
  2 104.52 0.000481358
---------------- Step   355000 ----- CPU =   2605.3031 (sec) ----------------
TotEng   =     -3297.8518 KinEng   =       662.0737 Temp     =       306.7845 
PotEng   =     -3959.9255 E_bond   =         0.1032 E_angle  =         1.0022 
E_dihed  =         0.0000 E_impro  =         0.0000 E_vdwl   =       753.1425 
E_coul   =     27035.2721 E_long   =    -31749.4455 Press    =        82.1021 
Volume   =     10955.6285 
SHAKE stats (type/ave/delta) on step 360000
  2 0.956981 5.68656e-06
  2 104.52 0.000434073
---------------- Step   360000 ----- CPU =   2642.6231 (sec) ----------------
TotEng   =     -3347.0083 KinEng   =       608.0824 Temp     =       281.7667 
PotEng   =     -3955.0908 E_bond   =         0.1838 E_angle  =         1.5215 
E_dihed  =         0.0000 E_impro  =         0.0000 E_vdwl   =       697.7450 
E_coul   =     27093.2991 E_long   =    -31747.8403 Press    =      -863.7125 
Volume   =     10976.5109 
SHAKE stats (type/ave/delta) on step 365000
  2 0.956999 8.48495e-06
  2 104.52 0.000808736
---------------- Step   365000 ----- CPU =   2679.6583 (sec) ----------------
TotEng   =     -3298.6606 KinEng   =       644.8742 Temp     =       298.8148 
PotEng   =     -3943.5348 E_bond   =         0.2626 E_angle  =         1.4920 
E_dihed  =         0.0000 E_impro  =         0.0000 E_vdwl   =       749.1955 
E_coul   =     27050.2992 E_long   =    -31744.7842 Press    =       453.0039 
Volume   =     10842.7525 
SHAKE stats (type/ave/delta) on step 370000
  2 0.957014 1.06982e-05
  2 104.52 0.000728975
---------------- Step   370000 ----- CPU =   2716.1158 (sec) ----------------
TotEng   =     -3305.8686 KinEng   =       653.1349 Temp     =       302.6426 
PotEng   =     -3959.0035 E_bond   =         0.1244 E_angle  =         1.7185 
E_dihed  =         0.0000 E_impro  =         0.0000 E_vdwl   =       731.0677 
E_coul   =     27056.3399 E_long   =    -31748.2540 Press    =      -234.3287 
Volume   =     10876.4555 
SHAKE stats (type/ave/delta) on step 375000
  2 0.956974 7.90129e-06
  2 104.52 0.000577265
---------------- Step   375000 ----- CPU =   2753.3599 (sec) ----------------
TotEng   =     -3280.9498 KinEng   =       671.9687 Temp     =       311.3696 
PotEng   =     -3952.9185 E_bond   =         0.1799 E_angle  =         0.6956 
E_dihed  =         0.0000 E_impro  =         0.0000 E_vdwl   =       677.2053 
E_coul   =     27119.0035 E_long   =    -31750.0028 Press    =     -1465.7104 
Volume   =     11152.1946 
SHAKE stats (type/ave/delta) on step 380000
  2 0.956938 7.16475e-06
  2 104.52 0.000698154
---------------- Step   380000 ----- CPU =   2787.8645 (sec) ----------------
TotEng   =     -3310.8165 KinEng   =       625.5366 Temp     =       289.8544 
PotEng   =     -3936.3530 E_bond   =         0.4927 E_angle  =         2.2759 
E_dihed  =         0.0000 E_impro  =         0.0000 E_vdwl   =       759.1433 
E_coul   =     27050.0385 E_long   =    -31748.3035 Press    =       661.1327 
Volume   =     10833.1098 
SHAKE stats (type/ave/delta) on step 385000
  2 0.957015 6.40653e-06
  2 104.52 0.0005274
---------------- Step   385000 ----- CPU =   2822.8000 (sec) ----------------
TotEng   =     -3257.5063 KinEng   =       639.9435 Temp     =       296.5301 
PotEng   =     -3897.4498 E_bond   =         0.4127 E_angle  =         2.0363 
E_dihed  =         0.0000 E_impro  =         0.0000 E_vdwl   =       700.5137 
E_coul   =     27144.9229 E_long   =    -31745.3355 Press    =      -471.4483 
Volume   =     10740.9494 
SHAKE stats (type/ave/delta) on step 390000
  2 0.956983 6.42649e-06
  2 104.52 0.000505115
---------------- Step   390000 ----- CPU =   2858.3425 (sec) ----------------
TotEng   =     -3301.6772 KinEng   =       669.0335 Temp     =       310.0095 
PotEng   =     -3970.7107 E_bond   =         0.2517 E_angle  =         1.0918 
E_dihed  =         0.0000 E_impro  =         0.0000 E_vdwl   =       718.4927 
E_coul   =     27057.8078 E_long   =    -31748.3546 Press    =      -315.8620 
Volume   =     10668.3667 
SHAKE stats (type/ave/delta) on step 395000
  2 0.956993 4.94165e-06
  2 104.52 0.000397019
---------------- Step   395000 ----- CPU =   2894.0909 (sec) ----------------
TotEng   =     -3282.8594 KinEng   =       677.0982 Temp     =       313.7464 
PotEng   =     -3959.9576 E_bond   =         0.5212 E_angle  =         2.1948 
E_dihed  =         0.0000 E_impro  =         0.0000 E_vdwl   =       738.4097 
E_coul   =     27044.0054 E_long   =    -31745.0887 Press    =       176.9566 
Volume   =     10724.2322 
SHAKE stats (type/ave/delta) on step 400000
  2 0.956945 1.00776e-05
  2 104.52 0.000868043
---------------- Step   400000 ----- CPU =   2930.0602 (sec) ----------------
TotEng   =     -3286.6234 KinEng   =       654.5154 Temp     =       303.2823 
PotEng   =     -3941.1388 E_bond   =         0.7916 E_angle  =         3.5260 
E_dihed  =         0.0000 E_impro  =         0.0000 E_vdwl   =       744.6019 
E_coul   =     27050.2016 E_long   =    -31740.2598 Press    =       167.1992 
Volume   =     10843.2912 
SHAKE stats (type/ave/delta) on step 405000
  2 0.956999 6.40434e-06
  2 104.52 0.00058376
---------------- Step   405000 ----- CPU =   2966.3599 (sec) ----------------
TotEng   =     -3287.1797 KinEng   =       648.6645 Temp     =       300.5711 
PotEng   =     -3935.8442 E_bond   =         1.0629 E_angle  =         0.8827 
E_dihed  =         0.0000 E_impro  =         0.0000 E_vdwl   =       737.7162 
E_coul   =     27066.8645 E_long   =    -31742.3705 Press    =        10.4701 
Volume   =     10899.4786 
SHAKE stats (type/ave/delta) on step 410000
  2 0.956955 7.98184e-06
  2 104.52 0.000550432
---------------- Step   410000 ----- CPU =   3003.5796 (sec) ----------------
TotEng   =     -3334.9746 KinEng   =       648.1447 Temp     =       300.3303 
PotEng   =     -3983.1193 E_bond   =         0.6578 E_angle  =         1.9857 
E_dihed  =         0.0000 E_impro  =         0.0000 E_vdwl   =       740.9865 
E_coul   =     27019.8943 E_long   =    -31746.6437 Press    =      -981.0781 
Volume   =     11279.5928 
SHAKE stats (type/ave/delta) on step 415000
  2 0.956978 5.04511e-06
  2 104.52 0.000406931
---------------- Step   415000 ----- CPU =   3040.8820 (sec) ----------------
TotEng   =     -3400.1200 KinEng   =       621.6845 Temp     =       288.0694 
PotEng   =     -4021.8045 E_bond   =         0.5717 E_angle  =         1.4138 
E_dihed  =         0.0000 E_impro  =         0.0000 E_vdwl   =       765.0778 
E_coul   =     26959.1671 E_long   =    -31748.0349 Press    =        22.1506 
Volume   =     10698.8546 
SHAKE stats (type/ave/delta) on step 420000
  2 0.957026 8.11532e-06
  2 104.52 0.00064986
---------------- Step   420000 ----- CPU =   3077.3955 (sec) ----------------
TotEng   =     -3355.3792 KinEng   =       637.3464 Temp     =       295.3267 
PotEng   =     -3992.7256 E_bond   =         0.4107 E_angle  =         1.4971 
E_dihed  =         0.0000 E_impro  =         0.0000 E_vdwl   =       748.4771 
E_coul   =     27001.3833 E_long   =    -31744.4939 Press    =      -426.2691 
Volume   =     11026.1629 
SHAKE stats (type/ave/delta) on step 425000
  2 0.95703 8.46171e-06
  2 104.52 0.000709309
---------------- Step   425000 ----- CPU =   3112.9119 (sec) ----------------
TotEng   =     -3291.5123 KinEng   =       653.5901 Temp     =       302.8535 
PotEng   =     -3945.1024 E_bond   =         0.7532 E_angle  =         1.6751 
E_dihed  =         0.0000 E_impro  =         0.0000 E_vdwl   =       707.4700 
E_coul   =     27089.7160 E_long   =    -31744.7167 Press    =      -928.7960 
Volume   =     11139.1773 
SHAKE stats (type/ave/delta) on step 430000
  2 0.956992 6.12056e-06
  2 104.52 0.000546384
---------------- Step   430000 ----- CPU =   3149.9085 (sec) ----------------
TotEng   =     -3347.6099 KinEng   =       622.4022 Temp     =       288.4020 
PotEng   =     -3970.0121 E_bond   =         0.2391 E_angle  =         1.6735 
E_dihed  =         0.0000 E_impro  =         0.0000 E_vdwl   =       743.0162 
E_coul   =     27031.9646 E_long   =    -31746.9055 Press    =       -88.2699 
Volume   =     10825.6455 
SHAKE stats (type/ave/delta) on step 435000
  2 0.956946 6.1051e-06
  2 104.52 0.00050054
---------------- Step   435000 ----- CPU =   3187.1092 (sec) ----------------
TotEng   =     -3234.8181 KinEng   =       686.6624 Temp     =       318.1782 
PotEng   =     -3921.4805 E_bond   =         0.6658 E_angle  =         1.5281 
E_dihed  =         0.0000 E_impro  =         0.0000 E_vdwl   =       695.4997 
E_coul   =     27122.1510 E_long   =    -31741.3251 Press    =      -347.0357 
Volume   =     10778.9493 
SHAKE stats (type/ave/delta) on step 440000
  2 0.957013 5.79797e-06
  2 104.52 0.000448912
---------------- Step   440000 ----- CPU =   3224.2086 (sec) ----------------
TotEng   =     -3294.2255 KinEng   =       647.3512 Temp     =       299.9626 
PotEng   =     -3941.5766 E_bond   =         0.3577 E_angle  =         1.7391 
E_dihed  =         0.0000 E_impro  =         0.0000 E_vdwl   =       710.0280 
E_coul   =     27092.0200 E_long   =    -31745.7214 Press    =      -767.4974 
Volume   =     11047.4412 
SHAKE stats (type/ave/delta) on step 445000
  2 0.956998 5.17087e-06
  2 104.52 0.000417964
---------------- Step   445000 ----- CPU =   3261.1863 (sec) ----------------
TotEng   =     -3334.6129 KinEng   =       622.5019 Temp     =       288.4482 
PotEng   =     -3957.1148 E_bond   =         0.0947 E_angle  =         1.4005 
E_dihed  =         0.0000 E_impro  =         0.0000 E_vdwl   =       648.7357 
E_coul   =     27138.7607 E_long   =    -31746.1065 Press    =     -2133.5971 
Volume   =     11027.8362 
SHAKE stats (type/ave/delta) on step 450000
  2 0.95703 5.40176e-06
  2 104.52 0.000377978
---------------- Step   450000 ----- CPU =   3298.1288 (sec) ----------------
TotEng   =     -3263.1044 KinEng   =       652.2948 Temp     =       302.2533 
PotEng   =     -3915.3991 E_bond   =         0.5463 E_angle  =         0.7405 
E_dihed  =         0.0000 E_impro  =         0.0000 E_vdwl   =       731.9440 
E_coul   =     27091.8639 E_long   =    -31740.4938 Press    =       368.6219 
Volume   =     10590.4833 
SHAKE stats (type/ave/delta) on step 455000
  2 0.956969 5.27877e-06
  2 104.52 0.000667093
---------------- Step   455000 ----- CPU =   3335.2669 (sec) ----------------
TotEng   =     -3290.1452 KinEng   =       660.7502 Temp     =       306.1713 
PotEng   =     -3950.8954 E_bond   =         0.8384 E_angle  =         0.9280 
E_dihed  =         0.0000 E_impro  =         0.0000 E_vdwl   =       793.8298 
E_coul   =     26998.1436 E_long   =    -31744.6352 Press    =       825.5092 
Volume   =     10875.3188 
SHAKE stats (type/ave/delta) on step 460000
  2 0.957014 5.10162e-06
  2 104.52 0.000556697
---------------- Step   460000 ----- CPU =   3371.1685 (sec) ----------------
TotEng   =     -3306.7434 KinEng   =       649.5219 Temp     =       300.9684 
PotEng   =     -3956.2653 E_bond   =         0.3113 E_angle  =         1.4599 
E_dihed  =         0.0000 E_impro  =         0.0000 E_vdwl   =       755.2689 
E_coul   =     27030.0312 E_long   =    -31743.3365 Press    =      -148.7595 
Volume   =     11144.8813 
SHAKE stats (type/ave/delta) on step 465000
  2 0.957022 1.58712e-05
  2 104.52 0.00159443
---------------- Step   465000 ----- CPU =   3408.3806 (sec) ----------------
TotEng   =     -3184.5104 KinEng   =       670.2406 Temp     =       310.5688 
PotEng   =     -3854.7511 E_bond   =         0.3694 E_angle  =         0.7074 
E_dihed  =         0.0000 E_impro  =         0.0000 E_vdwl   =       744.8673 
E_coul   =     27144.0264 E_long   =    -31744.7217 Press    =      1020.5227 
Volume   =     10853.5831 
SHAKE stats (type/ave/delta) on step 470000
  2 0.957009 4.18659e-06
  2 104.52 0.000385187
---------------- Step   470000 ----- CPU =   3445.4914 (sec) ----------------
TotEng   =     -3300.2571 KinEng   =       661.6005 Temp     =       306.5653 
PotEng   =     -3961.8576 E_bond   =         0.7620 E_angle  =         1.6246 
E_dihed  =         0.0000 E_impro  =         0.0000 E_vdwl   =       698.0566 
E_coul   =     27084.0043 E_long   =    -31746.3052 Press    =      -586.7524 
Volume   =     10744.3301 
SHAKE stats (type/ave/delta) on step 475000
  2 0.956996 4.66346e-06
  2 104.52 0.000374349
---------------- Step   475000 ----- CPU =   3483.2546 (sec) ----------------
TotEng   =     -3305.0726 KinEng   =       636.3918 Temp     =       294.8843 
PotEng   =     -3941.4644 E_bond   =         0.3192 E_angle  =         0.6434 
E_dihed  =         0.0000 E_impro  =         0.0000 E_vdwl   =       757.3703 
[...]
TotEng   =     -3323.8645 KinEng   =       653.8715 Temp     =       302.9839 
PotEng   =     -3977.7360 E_bond   =         1.5938 E_angle  =         4.1733 
E_dihed  =         0.0000 E_impro  =         0.0000 E_vdwl   =       730.9458 
E_coul   =     27035.7558 E_long   =    -31750.2047 Press    =      -526.5553 
Volume   =     10823.1357 
SHAKE stats (type/ave/delta) on step 2325000
  2 0.956974 4.96131e-06
  2 104.52 0.000423975
---------------- Step  2325000 ----- CPU =  17028.8058 (sec) ----------------
TotEng   =     -3339.0590 KinEng   =       625.2969 Temp     =       289.7433 
PotEng   =     -3964.3558 E_bond   =         0.0811 E_angle  =         6.4818 
E_dihed  =         0.0000 E_impro  =         0.0000 E_vdwl   =       739.2612 
E_coul   =     27039.0022 E_long   =    -31749.1821 Press    =      -409.3007 
Volume   =     11159.4717 
SHAKE stats (type/ave/delta) on step 2330000
  2 0.957022 7.17904e-06
  2 104.52 0.000508242
---------------- Step  2330000 ----- CPU =  17065.8574 (sec) ----------------
TotEng   =     -3329.4531 KinEng   =       649.6414 Temp     =       301.0238 
PotEng   =     -3979.0944 E_bond   =         1.8448 E_angle  =         3.6692 
E_dihed  =         0.0000 E_impro  =         0.0000 E_vdwl   =       772.6269 
E_coul   =     26985.7840 E_long   =    -31743.0193 Press    =       117.8577 
Volume   =     11052.9430 
SHAKE stats (type/ave/delta) on step 2335000
  2 0.956993 5.63333e-06
  2 104.52 0.000549583
---------------- Step  2335000 ----- CPU =  17102.3380 (sec) ----------------
TotEng   =     -3344.8109 KinEng   =       620.2282 Temp     =       287.3946 
PotEng   =     -3965.0391 E_bond   =         1.1568 E_angle  =         1.0908 
E_dihed  =         0.0000 E_impro  =         0.0000 E_vdwl   =       793.5300 
E_coul   =     26984.1220 E_long   =    -31744.9387 Press    =      1050.7408 
Volume   =     10914.9899 
SHAKE stats (type/ave/delta) on step 2340000
  2 0.957012 1.51864e-05
  2 104.52 0.00141066
---------------- Step  2340000 ----- CPU =  17138.9912 (sec) ----------------
TotEng   =     -3393.3217 KinEng   =       631.4603 Temp     =       292.5992 
PotEng   =     -4024.7820 E_bond   =         0.3722 E_angle  =         1.9775 
E_dihed  =         0.0000 E_impro  =         0.0000 E_vdwl   =       793.1035 
E_coul   =     26927.0954 E_long   =    -31747.3307 Press    =       662.2361 
Volume   =     10879.6241 
SHAKE stats (type/ave/delta) on step 2345000
  2 0.956979 8.16303e-06
  2 104.52 0.000671962
---------------- Step  2345000 ----- CPU =  17175.7807 (sec) ----------------
TotEng   =     -3291.0653 KinEng   =       649.4656 Temp     =       300.9423 
PotEng   =     -3940.5309 E_bond   =         0.7978 E_angle  =         2.2294 
E_dihed  =         0.0000 E_impro  =         0.0000 E_vdwl   =       680.5421 
E_coul   =     27124.6628 E_long   =    -31748.7629 Press    =     -1092.8355 
Volume   =     10948.5280 
SHAKE stats (type/ave/delta) on step 2350000
  2 0.957005 7.79139e-06
  2 104.52 0.00066368
---------------- Step  2350000 ----- CPU =  17212.2302 (sec) ----------------
TotEng   =     -3280.1359 KinEng   =       670.1147 Temp     =       310.5105 
PotEng   =     -3950.2506 E_bond   =         1.0546 E_angle  =         1.0889 
E_dihed  =         0.0000 E_impro  =         0.0000 E_vdwl   =       753.2781 
E_coul   =     27040.4139 E_long   =    -31746.0861 Press    =       497.8587 
Volume   =     10948.1292 
SHAKE stats (type/ave/delta) on step 2355000
  2 0.956955 1.06975e-05
  2 104.52 0.000876773
---------------- Step  2355000 ----- CPU =  17248.4745 (sec) ----------------
TotEng   =     -3275.2190 KinEng   =       688.2315 Temp     =       318.9052 
PotEng   =     -3963.4505 E_bond   =         1.4638 E_angle  =         0.9849 
E_dihed  =         0.0000 E_impro  =         0.0000 E_vdwl   =       754.5616 
E_coul   =     27026.8911 E_long   =    -31747.3518 Press    =       487.7247 
Volume   =     10775.0559 
SHAKE stats (type/ave/delta) on step 2360000
  2 0.957017 5.59888e-06
  2 104.52 0.000580696
---------------- Step  2360000 ----- CPU =  17284.9656 (sec) ----------------
TotEng   =     -3256.4070 KinEng   =       656.0567 Temp     =       303.9964 
PotEng   =     -3912.4637 E_bond   =         0.9591 E_angle  =         1.3943 
E_dihed  =         0.0000 E_impro  =         0.0000 E_vdwl   =       740.0373 
E_coul   =     27090.3897 E_long   =    -31745.2441 Press    =       407.5087 
Volume   =     10921.6066 
SHAKE stats (type/ave/delta) on step 2365000
  2 0.957012 8.25025e-06
  2 104.52 0.000636394
---------------- Step  2365000 ----- CPU =  17321.9985 (sec) ----------------
TotEng   =     -3267.6256 KinEng   =       673.1682 Temp     =       311.9254 
PotEng   =     -3940.7938 E_bond   =         0.2034 E_angle  =         0.4873 
E_dihed  =         0.0000 E_impro  =         0.0000 E_vdwl   =       767.2081 
E_coul   =     27033.7296 E_long   =    -31742.4222 Press    =       360.7712 
Volume   =     11064.1064 
SHAKE stats (type/ave/delta) on step 2370000
  2 0.957037 4.93086e-06
  2 104.52 0.000497129
---------------- Step  2370000 ----- CPU =  17359.1196 (sec) ----------------
TotEng   =     -3347.2973 KinEng   =       661.3525 Temp     =       306.4504 
PotEng   =     -4008.6498 E_bond   =         0.6554 E_angle  =         1.0254 
E_dihed  =         0.0000 E_impro  =         0.0000 E_vdwl   =       809.7187 
E_coul   =     26926.1953 E_long   =    -31746.2446 Press    =      1021.0887 
Volume   =     10903.8163 
SHAKE stats (type/ave/delta) on step 2375000
  2 0.956952 8.88757e-06
  2 104.52 0.000766557
---------------- Step  2375000 ----- CPU =  17395.9208 (sec) ----------------
TotEng   =     -3275.3437 KinEng   =       671.5108 Temp     =       311.1574 
PotEng   =     -3946.8545 E_bond   =         0.1433 E_angle  =         0.8988 
E_dihed  =         0.0000 E_impro  =         0.0000 E_vdwl   =       774.0121 
E_coul   =     27026.9368 E_long   =    -31748.8455 Press    =       446.4383 
Volume   =     11071.4321 
SHAKE stats (type/ave/delta) on step 2380000
  2 0.956989 6.23897e-06
  2 104.52 0.000434425
---------------- Step  2380000 ----- CPU =  17430.9205 (sec) ----------------
TotEng   =     -3278.8158 KinEng   =       655.9523 Temp     =       303.9481 
PotEng   =     -3934.7682 E_bond   =         0.5067 E_angle  =         1.9964 
E_dihed  =         0.0000 E_impro  =         0.0000 E_vdwl   =       785.2097 
E_coul   =     27026.7473 E_long   =    -31749.2282 Press    =       501.3454 
Volume   =     11180.9712 
SHAKE stats (type/ave/delta) on step 2385000
  2 0.957052 9.26879e-06
  2 104.52 0.000651416
---------------- Step  2385000 ----- CPU =  17466.0863 (sec) ----------------
TotEng   =     -3293.8905 KinEng   =       650.6340 Temp     =       301.4837 
PotEng   =     -3944.5245 E_bond   =         0.5215 E_angle  =         2.4616 
E_dihed  =         0.0000 E_impro  =         0.0000 E_vdwl   =       828.7738 
E_coul   =     26968.9939 E_long   =    -31745.2753 Press    =      1978.6435 
Volume   =     10827.1689 
SHAKE stats (type/ave/delta) on step 2390000
  2 0.956972 4.95779e-06
  2 104.52 0.000371575
---------------- Step  2390000 ----- CPU =  17500.7284 (sec) ----------------
TotEng   =     -3319.0451 KinEng   =       679.0461 Temp     =       314.6490 
PotEng   =     -3998.0912 E_bond   =         0.4226 E_angle  =         2.0612 
E_dihed  =         0.0000 E_impro  =         0.0000 E_vdwl   =       756.6487 
E_coul   =     26989.4494 E_long   =    -31746.6731 Press    =       270.0627 
Volume   =     10741.8671 
SHAKE stats (type/ave/delta) on step 2395000
  2 0.95699 4.58558e-06
  2 104.52 0.000413681
---------------- Step  2395000 ----- CPU =  17535.8759 (sec) ----------------
TotEng   =     -3315.7856 KinEng   =       649.1340 Temp     =       300.7887 
PotEng   =     -3964.9195 E_bond   =         1.5422 E_angle  =         0.9659 
E_dihed  =         0.0000 E_impro  =         0.0000 E_vdwl   =       757.3587 
E_coul   =     27021.9922 E_long   =    -31746.7785 Press    =        50.3888 
Volume   =     11024.4374 
SHAKE stats (type/ave/delta) on step 2400000
  2 0.956972 5.27898e-06
  2 104.52 0.000424971
---------------- Step  2400000 ----- CPU =  17570.3669 (sec) ----------------
TotEng   =     -3306.2763 KinEng   =       618.5190 Temp     =       286.6026 
PotEng   =     -3924.7954 E_bond   =         0.9550 E_angle  =         1.1186 
E_dihed  =         0.0000 E_impro  =         0.0000 E_vdwl   =       721.5738 
E_coul   =     27097.7785 E_long   =    -31746.2213 Press    =      -687.9211 
Volume   =     11259.7435 
SHAKE stats (type/ave/delta) on step 2405000
  2 0.957003 8.02002e-06
  2 104.52 0.000479896
---------------- Step  2405000 ----- CPU =  17607.3364 (sec) ----------------
TotEng   =     -3241.0720 KinEng   =       669.6819 Temp     =       310.3099 
PotEng   =     -3910.7539 E_bond   =         0.2523 E_angle  =         0.6379 
E_dihed  =         0.0000 E_impro  =         0.0000 E_vdwl   =       736.8823 
E_coul   =     27097.4106 E_long   =    -31745.9369 Press    =       107.5298 
Volume   =     11115.3737 
SHAKE stats (type/ave/delta) on step 2410000
  2 0.957006 4.83816e-06
  2 104.52 0.000418887
---------------- Step  2410000 ----- CPU =  17643.8494 (sec) ----------------
TotEng   =     -3261.3316 KinEng   =       645.1380 Temp     =       298.9370 
PotEng   =     -3906.4696 E_bond   =         2.4517 E_angle  =         2.4435 
E_dihed  =         0.0000 E_impro  =         0.0000 E_vdwl   =       680.1290 
E_coul   =     27153.1970 E_long   =    -31744.6909 Press    =     -1080.1378 
Volume   =     11168.5009 
SHAKE stats (type/ave/delta) on step 2415000
  2 0.956984 1.1943e-05
  2 104.52 0.00111834
---------------- Step  2415000 ----- CPU =  17680.6620 (sec) ----------------
TotEng   =     -3322.7336 KinEng   =       641.1900 Temp     =       297.1077 
PotEng   =     -3963.9236 E_bond   =         0.8331 E_angle  =         2.7403 
E_dihed  =         0.0000 E_impro  =         0.0000 E_vdwl   =       723.5080 
E_coul   =     27055.8138 E_long   =    -31746.8187 Press    =      -146.4530 
Volume   =     10741.2034 
SHAKE stats (type/ave/delta) on step 2420000
  2 0.956989 1.45137e-05
  2 104.52 0.00118036
---------------- Step  2420000 ----- CPU =  17717.2804 (sec) ----------------
TotEng   =     -3313.4544 KinEng   =       667.3037 Temp     =       309.2080 
PotEng   =     -3980.7582 E_bond   =         1.1555 E_angle  =         0.9326 
E_dihed  =         0.0000 E_impro  =         0.0000 E_vdwl   =       763.0889 
E_coul   =     27002.5047 E_long   =    -31748.4399 Press    =         9.9652 
Volume   =     10939.7889 
SHAKE stats (type/ave/delta) on step 2425000
  2 0.957008 1.04965e-05
  2 104.52 0.000647393
---------------- Step  2425000 ----- CPU =  17753.4097 (sec) ----------------
TotEng   =     -3304.5544 KinEng   =       652.2350 Temp     =       302.2256 
PotEng   =     -3956.7894 E_bond   =         0.6130 E_angle  =         3.6747 
E_dihed  =         0.0000 E_impro  =         0.0000 E_vdwl   =       673.2236 
E_coul   =     27107.6026 E_long   =    -31741.9033 Press    =     -1689.0275 
Volume   =     11002.2261 
SHAKE stats (type/ave/delta) on step 2430000
  2 0.956917 6.0525e-06
  2 104.52 0.000456573
---------------- Step  2430000 ----- CPU =  17790.2293 (sec) ----------------
TotEng   =     -3356.3885 KinEng   =       622.0407 Temp     =       288.2345 
PotEng   =     -3978.4291 E_bond   =         2.0705 E_angle  =         1.8706 
E_dihed  =         0.0000 E_impro  =         0.0000 E_vdwl   =       741.4388 
E_coul   =     27020.9331 E_long   =    -31744.7423 Press    =      -547.9949 
Volume   =     11084.5601 
SHAKE stats (type/ave/delta) on step 2435000
  2 0.956982 5.1928e-06
  2 104.52 0.000410814
---------------- Step  2435000 ----- CPU =  17827.4193 (sec) ----------------
TotEng   =     -3322.7437 KinEng   =       633.9833 Temp     =       293.7683 
PotEng   =     -3956.7270 E_bond   =         1.2313 E_angle  =         2.9921 
E_dihed  =         0.0000 E_impro  =         0.0000 E_vdwl   =       729.6750 
E_coul   =     27053.1493 E_long   =    -31743.7747 Press    =      -573.4560 
Volume   =     11078.2731 
SHAKE stats (type/ave/delta) on step 2440000
  2 0.957025 7.53191e-06
  2 104.52 0.000580397
---------------- Step  2440000 ----- CPU =  17865.1385 (sec) ----------------
TotEng   =     -3263.9852 KinEng   =       677.6304 Temp     =       313.9930 
PotEng   =     -3941.6156 E_bond   =         0.9432 E_angle  =         1.2658 
E_dihed  =         0.0000 E_impro  =         0.0000 E_vdwl   =       748.0663 
E_coul   =     27053.7314 E_long   =    -31745.6223 Press    =       273.2132 
Volume   =     10995.4895 
SHAKE stats (type/ave/delta) on step 2445000
  2 0.956977 1.16845e-05
  2 104.52 0.000950197
---------------- Step  2445000 ----- CPU =  17902.0039 (sec) ----------------
TotEng   =     -3384.3158 KinEng   =       632.4833 Temp     =       293.0733 
PotEng   =     -4016.7991 E_bond   =         0.8466 E_angle  =         1.6280 
E_dihed  =         0.0000 E_impro  =         0.0000 E_vdwl   =       756.9212 
E_coul   =     26970.3011 E_long   =    -31746.4961 Press    =       -33.3449 
Volume   =     10835.1954 
SHAKE stats (type/ave/delta) on step 2450000
  2 0.956978 1.75336e-05
  2 104.52 0.00126093
---------------- Step  2450000 ----- CPU =  17938.9971 (sec) ----------------
TotEng   =     -3314.2588 KinEng   =       665.3254 Temp     =       308.2913 
PotEng   =     -3979.5841 E_bond   =         0.3787 E_angle  =         0.9156 
E_dihed  =         0.0000 E_impro  =         0.0000 E_vdwl   =       784.4729 
E_coul   =     26981.9619 E_long   =    -31747.3132 Press    =       340.3607 
Volume   =     11079.3763 
SHAKE stats (type/ave/delta) on step 2455000
  2 0.957042 4.76215e-06
  2 104.52 0.000401024
---------------- Step  2455000 ----- CPU =  17976.2648 (sec) ----------------
TotEng   =     -3256.0327 KinEng   =       626.4135 Temp     =       290.2607 
PotEng   =     -3882.4462 E_bond   =         0.8236 E_angle  =         0.6592 
E_dihed  =         0.0000 E_impro  =         0.0000 E_vdwl   =       729.1673 
E_coul   =     27128.3330 E_long   =    -31741.4294 Press    =       242.5600 
Volume   =     11116.9478 
SHAKE stats (type/ave/delta) on step 2460000
  2 0.957057 5.70867e-06
  2 104.52 0.00051708
---------------- Step  2460000 ----- CPU =  18013.4864 (sec) ----------------
TotEng   =     -3339.4152 KinEng   =       602.5312 Temp     =       279.1944 
PotEng   =     -3941.9464 E_bond   =         1.2777 E_angle  =         1.7518 
E_dihed  =         0.0000 E_impro  =         0.0000 E_vdwl   =       747.8383 
E_coul   =     27054.4393 E_long   =    -31747.2536 Press    =       245.5386 
Volume   =     10928.9491 
SHAKE stats (type/ave/delta) on step 2465000
  2 0.956962 4.90782e-06
  2 104.52 0.000405076
---------------- Step  2465000 ----- CPU =  18051.2577 (sec) ----------------
TotEng   =     -3292.7657 KinEng   =       645.3607 Temp     =       299.0403 
PotEng   =     -3938.1264 E_bond   =         0.9897 E_angle  =         2.1838 
E_dihed  =         0.0000 E_impro  =         0.0000 E_vdwl   =       700.8991 
E_coul   =     27100.6215 E_long   =    -31742.8204 Press    =      -759.7809 
Volume   =     10984.5193 
SHAKE stats (type/ave/delta) on step 2470000
  2 0.957065 5.32628e-06
  2 104.52 0.000533148
---------------- Step  2470000 ----- CPU =  18088.5561 (sec) ----------------
TotEng   =     -3324.5718 KinEng   =       612.2046 Temp     =       283.6767 
PotEng   =     -3936.7764 E_bond   =         0.6936 E_angle  =         1.3557 
E_dihed  =         0.0000 E_impro  =         0.0000 E_vdwl   =       711.9064 
E_coul   =     27093.7950 E_long   =    -31744.5271 Press    =      -830.1561 
Volume   =     11168.1657 
SHAKE stats (type/ave/delta) on step 2475000
  2 0.957003 4.57004e-06
  2 104.52 0.000362135
---------------- Step  2475000 ----- CPU =  18125.5428 (sec) ----------------
TotEng   =     -3296.0254 KinEng   =       673.9920 Temp     =       312.3071 
PotEng   =     -3970.0174 E_bond   =         1.0808 E_angle  =         0.7737 
E_dihed  =         0.0000 E_impro  =         0.0000 E_vdwl   =       706.5576 
E_coul   =     27068.0526 E_long   =    -31746.4821 Press    =      -946.4705 
Volume   =     11087.9012 
SHAKE stats (type/ave/delta) on step 2480000
  2 0.957014 5.07671e-06
  2 104.52 0.000443543
---------------- Step  2480000 ----- CPU =  18161.7959 (sec) ----------------
TotEng   =     -3284.8451 KinEng   =       649.0210 Temp     =       300.7363 
PotEng   =     -3933.8662 E_bond   =         1.2684 E_angle  =         1.8946 
E_dihed  =         0.0000 E_impro  =         0.0000 E_vdwl   =       702.6969 
E_coul   =     27105.4121 E_long   =    -31745.1382 Press    =      -915.0533 
Volume   =     11213.1711 
SHAKE stats (type/ave/delta) on step 2485000
  2 0.957036 4.63374e-06
  2 104.52 0.000432526
---------------- Step  2485000 ----- CPU =  18198.2705 (sec) ----------------
TotEng   =     -3296.6580 KinEng   =       644.6381 Temp     =       298.7054 
PotEng   =     -3941.2961 E_bond   =         0.2432 E_angle  =         2.6744 
E_dihed  =         0.0000 E_impro  =         0.0000 E_vdwl   =       664.5204 
E_coul   =     27135.4038 E_long   =    -31744.1379 Press    =     -1605.6251 
Volume   =     11033.7017 
SHAKE stats (type/ave/delta) on step 2490000
  2 0.956961 9.23562e-06
  2 104.52 0.00137048
---------------- Step  2490000 ----- CPU =  18235.0324 (sec) ----------------
TotEng   =     -3374.0456 KinEng   =       623.3499 Temp     =       288.8411 
PotEng   =     -3997.3955 E_bond   =         0.5246 E_angle  =         1.2740 
E_dihed  =         0.0000 E_impro  =         0.0000 E_vdwl   =       695.4356 
E_coul   =     27053.1700 E_long   =    -31747.7998 Press    =     -1341.3766 
Volume   =     11033.5625 
SHAKE stats (type/ave/delta) on step 2495000
  2 0.956985 4.38221e-06
  2 104.52 0.000409206
---------------- Step  2495000 ----- CPU =  18272.6675 (sec) ----------------
TotEng   =     -3372.3070 KinEng   =       625.1194 Temp     =       289.6611 
PotEng   =     -3997.4264 E_bond   =         0.9024 E_angle  =         0.8677 
E_dihed  =         0.0000 E_impro  =         0.0000 E_vdwl   =       742.0376 
E_coul   =     27003.3831 E_long   =    -31744.6172 Press    =      -482.3968 
Volume   =     10999.9112 
SHAKE stats (type/ave/delta) on step 2500000
  2 0.956988 4.48088e-06
  2 104.52 0.000383076
---------------- Step  2500000 ----- CPU =  18309.4970 (sec) ----------------
TotEng   =     -3299.4936 KinEng   =       665.9654 Temp     =       308.5878 
PotEng   =     -3965.4590 E_bond   =         0.3193 E_angle  =         1.0185 
E_dihed  =         0.0000 E_impro  =         0.0000 E_vdwl   =       754.6378 
E_coul   =     27021.4271 E_long   =    -31742.8617 Press    =       538.9296 
Volume   =     10742.7262 
Loop time of 18309.5 on 8 procs for 2500000 steps with 1085 atoms

Pair  time (%) = 13087.7 (71.4804)
Bond  time (%) = 1.59459 (0.0087091)
Kspce time (%) = 2879.51 (15.7269)
Neigh time (%) = 461.709 (2.52169)
Comm  time (%) = 641.671 (3.50458)
Outpt time (%) = 0.223136 (0.00121869)
Other time (%) = 1237.08 (6.75651)

FFT time (% of Kspce) = 250.76 (8.70843)
FFT Gflps 3d (1d only) = 5.46718 35.1271

Nlocal:    135.625 ave 143 max 120 min
Histogram: 1 0 0 1 0 0 0 3 1 2
Nghost:    4386.75 ave 4429 max 4331 min
Histogram: 1 0 0 0 1 2 2 0 1 1
Neighs:    52716.5 ave 58509 max 40841 min
Histogram: 1 0 0 0 1 1 1 0 2 2

Total # of neighbors = 421732
Ave neighs/atom = 388.693
Ave special neighs/atom = 2.00922
Neighbor list builds = 197334
Dangerous builds = 22516

# write_restart restart.*.lmp
write_data data.*.lmp
PPPM initialization ...
  G vector (1/distance) = 0.286248
  grid = 15 15 15
  stencil order = 5
  estimated absolute RMS force accuracy = 0.0142607
  estimated relative force accuracy = 4.29458e-05
  using double precision FFTs
  3d grid and FFT values/proc = 2744 512
