LAMMPS (11 Nov 2013)
# created by fftool

units real
boundary p p p

atom_style full
bond_style harmonic
angle_style harmonic
special_bonds lj/coul 0.0 0.0 0.5

read_data data.0.lmp
  1 = max bonds/atom
  6 = max angles/atom
  orthogonal box = (-11.1235 -11.1235 -11.1235) to (11.1235 11.1235 11.1235)
  2 by 2 by 2 MPI processor grid
  1085 atoms
  1085 velocities
  724 bonds
  366 angles
  4 = max # of 1-2 neighbors
  3 = max # of 1-3 neighbors
  3 = max # of 1-4 neighbors
  4 = max # of special neighbors
# read_restart restart.*.lmp
# reset_timestep 0

pair_style hybrid lj/cut/coul/long 10.0 10.0 lj/cut/coul/long/soft 10.0 10.0
pair_modify tail no
kspace_style pppm 1.0e-4

pair_coeff    1    1  lj/cut/coul/long    0.0660   3.5000  # C4H C4H
pair_coeff    1    2  lj/cut/coul/long    0.0445   2.9580  # C4H H
pair_coeff    2    2  lj/cut/coul/long    0.0300   2.5000  # H H
pair_coeff    3    3  lj/cut/coul/long    0.0000   1.0000  # Hw Hw
pair_coeff    3    4  lj/cut/coul/long    0.0000   1.0000  # Hw Ow
pair_coeff    4    4  lj/cut/coul/long    0.1554   3.1655  # Ow Ow

pair_coeff    1    3  lj/cut/coul/long/soft    0.0000   1.0000  0.0  # C4H Hw
pair_coeff    1    4  lj/cut/coul/long/soft    0.1013   3.3286  0.0  # C4H Ow
pair_coeff    2    3  lj/cut/coul/long/soft    0.0000   1.0000  0.0  # H Hw
pair_coeff    2    4  lj/cut/coul/long/soft    0.0683   2.8131  0.0  # H Ow

variable nsteps equal 5000000
variable nprint equal ${nsteps}/500
variable nprint equal 5000000/500
variable ndump equal ${nsteps}/100
variable ndump equal 5000000/100
# variable nrestart equal ${nsteps}/10

variable temp equal 300.0
variable press equal 1.0

neighbor 2.0 bin

timestep 2.0

# velocity all create ${temp} 12345

thermo_style multi
thermo ${nprint}
thermo 10000

fix fSHAKE all shake 0.0001 20 ${nprint} b 2 a 2
fix fSHAKE all shake 0.0001 20 10000 b 2 a 2
  0 = # of size 2 clusters
  0 = # of size 3 clusters
  0 = # of size 4 clusters
  360 = # of frozen angles

fix fNPT all npt temp ${temp} ${temp} 100 iso ${press} ${press} 500
fix fNPT all npt temp 300 ${temp} 100 iso ${press} ${press} 500
fix fNPT all npt temp 300 300 100 iso ${press} ${press} 500
fix fNPT all npt temp 300 300 100 iso 1 ${press} 500
fix fNPT all npt temp 300 300 100 iso 1 1 500

run 100000
PPPM initialization ...
  G vector (1/distance) = 0.267394
  grid = 12 12 12
  stencil order = 5
  estimated absolute RMS force accuracy = 0.0261954
  estimated relative force accuracy = 7.88866e-05
  using double precision FFTs
  3d grid and FFT values/proc = 2197 288
SHAKE stats (type/ave/delta) on step 0
  2 0.999982 8.74345e-06
  2 109.47 0.000894552
Memory usage per processor = 6.45106 Mbytes
---------------- Step        0 ----- CPU =      0.0000 (sec) ----------------
TotEng   =     -3342.1460 KinEng   =       656.2542 Temp     =       304.0880 
PotEng   =     -3998.4003 E_bond   =         3.7430 E_angle  =         0.9881 
E_dihed  =         0.0000 E_impro  =         0.0000 E_vdwl   =       791.1284 
E_coul   =     14649.8895 E_long   =    -19444.1493 Press    =       282.0372 
Volume   =     11010.6931 
SHAKE stats (type/ave/delta) on step 10000
  2 1 7.20105e-06
  2 109.47 0.00059934
---------------- Step    10000 ----- CPU =     26.7433 (sec) ----------------
TotEng   =     -3322.9307 KinEng   =       664.2566 Temp     =       307.7960 
PotEng   =     -3987.1874 E_bond   =         2.4601 E_angle  =         0.7998 
E_dihed  =         0.0000 E_impro  =         0.0000 E_vdwl   =       784.2900 
E_coul   =     14668.7832 E_long   =    -19443.5203 Press    =       234.5828 
Volume   =     10854.2546 
SHAKE stats (type/ave/delta) on step 20000
  2 0.999924 7.34152e-06
  2 109.47 0.000591937
---------------- Step    20000 ----- CPU =     53.7830 (sec) ----------------
TotEng   =     -3336.8670 KinEng   =       652.7564 Temp     =       302.4672 
PotEng   =     -3989.6235 E_bond   =         2.3157 E_angle  =         0.5242 
E_dihed  =         0.0000 E_impro  =         0.0000 E_vdwl   =       760.4377 
E_coul   =     14690.7714 E_long   =    -19443.6724 Press    =      -324.6833 
Volume   =     10918.7681 
SHAKE stats (type/ave/delta) on step 30000
  2 1.00003 5.92473e-06
  2 109.47 0.000469137
---------------- Step    30000 ----- CPU =     79.4960 (sec) ----------------
TotEng   =     -3331.1930 KinEng   =       643.3664 Temp     =       298.1162 
PotEng   =     -3974.5594 E_bond   =         3.3008 E_angle  =         0.4518 
E_dihed  =         0.0000 E_impro  =         0.0000 E_vdwl   =       746.3499 
E_coul   =     14721.3059 E_long   =    -19445.9678 Press    =      -431.8754 
Volume   =     10864.7666 
SHAKE stats (type/ave/delta) on step 40000
  2 1.00006 4.06413e-06
  2 109.47 0.000360924
---------------- Step    40000 ----- CPU =    105.8899 (sec) ----------------
TotEng   =     -3343.5292 KinEng   =       663.2779 Temp     =       307.3425 
PotEng   =     -4006.8071 E_bond   =         2.7073 E_angle  =         0.3425 
E_dihed  =         0.0000 E_impro  =         0.0000 E_vdwl   =       791.5591 
E_coul   =     14641.9163 E_long   =    -19443.3323 Press    =       -86.6186 
Volume   =     11123.4778 
SHAKE stats (type/ave/delta) on step 50000
  2 1.00004 1.15552e-05
  2 109.47 0.000816405
---------------- Step    50000 ----- CPU =    132.4566 (sec) ----------------
TotEng   =     -3322.2601 KinEng   =       646.7799 Temp     =       299.6979 
PotEng   =     -3969.0401 E_bond   =         3.0332 E_angle  =         1.1996 
E_dihed  =         0.0000 E_impro  =         0.0000 E_vdwl   =       781.6799 
E_coul   =     14687.7631 E_long   =    -19442.7158 Press    =       -29.0894 
Volume   =     11154.1260 
SHAKE stats (type/ave/delta) on step 60000
  2 0.999914 5.54907e-06
  2 109.47 0.00044167
---------------- Step    60000 ----- CPU =    158.5918 (sec) ----------------
TotEng   =     -3360.2941 KinEng   =       622.5774 Temp     =       288.4832 
PotEng   =     -3982.8715 E_bond   =         2.3121 E_angle  =         1.2976 
E_dihed  =         0.0000 E_impro  =         0.0000 E_vdwl   =       791.0435 
E_coul   =     14666.1708 E_long   =    -19443.6955 Press    =       489.9914 
Volume   =     10837.0315 
SHAKE stats (type/ave/delta) on step 70000
  2 1.00006 4.8374e-06
  2 109.47 0.000494673
---------------- Step    70000 ----- CPU =    185.3648 (sec) ----------------
TotEng   =     -3301.0043 KinEng   =       656.6795 Temp     =       304.2850 
PotEng   =     -3957.6838 E_bond   =         1.9103 E_angle  =         1.2693 
E_dihed  =         0.0000 E_impro  =         0.0000 E_vdwl   =       754.7681 
E_coul   =     14729.2688 E_long   =    -19444.9004 Press    =       185.5617 
Volume   =     10674.6806 
SHAKE stats (type/ave/delta) on step 80000
  2 1.00001 5.31932e-06
  2 109.47 0.000423651
---------------- Step    80000 ----- CPU =    210.9786 (sec) ----------------
TotEng   =     -3295.0083 KinEng   =       664.7719 Temp     =       308.0348 
PotEng   =     -3959.7803 E_bond   =         2.1839 E_angle  =         0.7596 
E_dihed  =         0.0000 E_impro  =         0.0000 E_vdwl   =       741.8292 
E_coul   =     14737.6059 E_long   =    -19442.1588 Press    =      -166.3538 
Volume   =     10901.7456 
SHAKE stats (type/ave/delta) on step 90000
  2 0.999854 8.10627e-06
  2 109.47 0.000628198
---------------- Step    90000 ----- CPU =    236.6948 (sec) ----------------
TotEng   =     -3385.1505 KinEng   =       642.0026 Temp     =       297.4842 
PotEng   =     -4027.1532 E_bond   =         2.5118 E_angle  =         1.1221 
E_dihed  =         0.0000 E_impro  =         0.0000 E_vdwl   =       756.7902 
E_coul   =     14656.6242 E_long   =    -19444.2014 Press    =      -344.2908 
Volume   =     10882.7044 
SHAKE stats (type/ave/delta) on step 100000
  2 1.00008 4.32068e-06
  2 109.47 0.000586201
---------------- Step   100000 ----- CPU =    262.1003 (sec) ----------------
TotEng   =     -3294.7887 KinEng   =       659.2687 Temp     =       305.4848 
PotEng   =     -3954.0574 E_bond   =         1.0618 E_angle  =         1.3257 
E_dihed  =         0.0000 E_impro  =         0.0000 E_vdwl   =       811.9720 
E_coul   =     14674.1135 E_long   =    -19442.5305 Press    =      1213.6760 
Volume   =     10961.0119 
Loop time of 262.1 on 8 procs for 100000 steps with 1085 atoms

Pair  time (%) = 134.921 (51.4768)
Bond  time (%) = 0.063004 (0.0240381)
Kspce time (%) = 47.1679 (17.9961)
Neigh time (%) = 19.4386 (7.41646)
Comm  time (%) = 26.0065 (9.92234)
Outpt time (%) = 0.000608921 (0.000232324)
Other time (%) = 34.5029 (13.164)

FFT time (% of Kspce) = 6.11086 (12.9556)
FFT Gflps 3d (1d only) = 4.21602 53.28

Nlocal:    135.625 ave 144 max 129 min
Histogram: 3 0 0 0 1 0 2 1 0 1
Nghost:    4153.62 ave 4191 max 4120 min
Histogram: 3 0 0 0 1 0 1 1 1 1
Neighs:    48640.1 ave 54381 max 43305 min
Histogram: 1 0 1 1 3 0 0 0 1 1

Total # of neighbors = 389121
Ave neighs/atom = 358.637
Ave special neighs/atom = 2.00922
Neighbor list builds = 8248
Dangerous builds = 1316

reset_timestep 0

variable lambda equal ramp(0.0,1.0)
variable lam13 equal v_lambda
variable lam14 equal v_lambda
variable lam23 equal v_lambda
variable lam24 equal v_lambda

fix fADAPT all adapt 125000   pair lj/cut/coul/long/soft lambda 1 3 v_lam13   pair lj/cut/coul/long/soft lambda 1 4 v_lam14   pair lj/cut/coul/long/soft lambda 2 3 v_lam23   pair lj/cut/coul/long/soft lambda 2 4 v_lam24   after yes

variable dlambda equal 0.002
variable dlam13 equal v_dlambda
variable dlam14 equal v_dlambda
variable dlam23 equal v_dlambda
variable dlam24 equal v_dlambda

compute cFEP all fep ${temp}   pair lj/cut/coul/long/soft lambda 1 3 v_dlam13   pair lj/cut/coul/long/soft lambda 1 4 v_dlam14   pair lj/cut/coul/long/soft lambda 2 3 v_dlam23   pair lj/cut/coul/long/soft lambda 2 4 v_dlam24
compute cFEP all fep 300   pair lj/cut/coul/long/soft lambda 1 3 v_dlam13   pair lj/cut/coul/long/soft lambda 1 4 v_dlam14   pair lj/cut/coul/long/soft lambda 2 3 v_dlam23   pair lj/cut/coul/long/soft lambda 2 4 v_dlam24

fix fFEP all ave/time 25 4000 125000 c_cFEP[1] c_cFEP[2] file fdti01.lmp

# compute cRDF all rdf 100 1 1
# fix fRDF all ave/time 20 100 ${nsteps} c_cRDF file rdf.lammps mode vector

compute cMSD all msd
fix fMSD all ave/time 1 1 ${ndump} c_cMSD[1] c_cMSD[2] c_cMSD[3] c_cMSD[4] file msd.lammps
fix fMSD all ave/time 1 1 50000 c_cMSD[1] c_cMSD[2] c_cMSD[3] c_cMSD[4] file msd.lammps

dump dCONF all custom ${ndump} dump.lammpstrj id mol type element x y z ix iy iz
dump dCONF all custom 50000 dump.lammpstrj id mol type element x y z ix iy iz
dump_modify dCONF element C H H O

# restart ${nrestart} restart.*.lmp

run ${nsteps}
run 5000000
PPPM initialization ...
  G vector (1/distance) = 0.267521
  grid = 12 12 12
  stencil order = 5
  estimated absolute RMS force accuracy = 0.0260772
  estimated relative force accuracy = 7.85308e-05
  using double precision FFTs
  3d grid and FFT values/proc = 2197 288
FEP settings ...
  temperature = 300.000000
  tail no
  lj/cut/coul/long/soft lambda 1-1 3-3
  lj/cut/coul/long/soft lambda 1-1 4-4
  lj/cut/coul/long/soft lambda 2-2 3-3
  lj/cut/coul/long/soft lambda 2-2 4-4
SHAKE stats (type/ave/delta) on step 0
  2 1.00008 4.32068e-06
  2 109.47 0.000586201
Memory usage per processor = 7.61221 Mbytes
---------------- Step        0 ----- CPU =      0.0000 (sec) ----------------
TotEng   =     -3294.7873 KinEng   =       659.2687 Temp     =       305.4848 
PotEng   =     -3954.0560 E_bond   =         1.0618 E_angle  =         1.3257 
E_dihed  =         0.0000 E_impro  =         0.0000 E_vdwl   =       811.9720 
E_coul   =     14683.3184 E_long   =    -19451.7340 Press    =      1212.2577 
Volume   =     10961.0119 
SHAKE stats (type/ave/delta) on step 10000
  2 1.00005 4.64437e-06
  2 109.47 0.000379534
---------------- Step    10000 ----- CPU =     24.9181 (sec) ----------------
TotEng   =     -3373.7292 KinEng   =       660.7232 Temp     =       306.1587 
PotEng   =     -4034.4524 E_bond   =         2.2323 E_angle  =         1.2723 
E_dihed  =         0.0000 E_impro  =         0.0000 E_vdwl   =       791.9595 
E_coul   =     14624.3332 E_long   =    -19454.2496 Press    =        -7.2711 
Volume   =     10868.4035 
SHAKE stats (type/ave/delta) on step 20000
  2 1.00009 5.70443e-06
  2 109.47 0.00046089
---------------- Step    20000 ----- CPU =     50.2760 (sec) ----------------
TotEng   =     -3323.0919 KinEng   =       642.5824 Temp     =       297.7529 
PotEng   =     -3965.6743 E_bond   =         2.8669 E_angle  =         1.8658 
E_dihed  =         0.0000 E_impro  =         0.0000 E_vdwl   =       671.9257 
E_coul   =     14812.7078 E_long   =    -19455.0406 Press    =     -2295.0194 
Volume   =     11231.5470 
SHAKE stats (type/ave/delta) on step 30000
  2 1.00004 5.81256e-06
  2 109.47 0.000388345
---------------- Step    30000 ----- CPU =     77.0304 (sec) ----------------
TotEng   =     -3276.7236 KinEng   =       682.6102 Temp     =       316.3005 
PotEng   =     -3959.3338 E_bond   =         2.5998 E_angle  =         1.0537 
E_dihed  =         0.0000 E_impro  =         0.0000 E_vdwl   =       731.8753 
E_coul   =     14759.9936 E_long   =    -19454.8562 Press    =      -271.0453 
Volume   =     10963.9414 
SHAKE stats (type/ave/delta) on step 40000
  2 1 4.12566e-06
  2 109.47 0.000385977
---------------- Step    40000 ----- CPU =    104.6442 (sec) ----------------
TotEng   =     -3291.9411 KinEng   =       674.6496 Temp     =       312.6118 
PotEng   =     -3966.5907 E_bond   =         3.1057 E_angle  =         1.1563 
E_dihed  =         0.0000 E_impro  =         0.0000 E_vdwl   =       767.6847 
E_coul   =     14716.8130 E_long   =    -19455.3504 Press    =       241.5584 
Volume   =     10812.4623 
SHAKE stats (type/ave/delta) on step 50000
  2 1.00001 1.92343e-05
  2 109.47 0.00145554
---------------- Step    50000 ----- CPU =    131.7677 (sec) ----------------
TotEng   =     -3338.0151 KinEng   =       663.8347 Temp     =       307.6005 
PotEng   =     -4001.8499 E_bond   =         2.0594 E_angle  =         1.5880 
E_dihed  =         0.0000 E_impro  =         0.0000 E_vdwl   =       773.4176 
E_coul   =     14676.1753 E_long   =    -19455.0901 Press    =      -520.1411 
Volume   =     11147.9803 
SHAKE stats (type/ave/delta) on step 60000
  2 1.00002 6.0245e-06
  2 109.47 0.00066818
---------------- Step    60000 ----- CPU =    157.8307 (sec) ----------------
TotEng   =     -3411.8677 KinEng   =       627.9598 Temp     =       290.9772 
PotEng   =     -4039.8275 E_bond   =         0.6676 E_angle  =         0.8608 
E_dihed  =         0.0000 E_impro  =         0.0000 E_vdwl   =       723.2938 
E_coul   =     14690.1753 E_long   =    -19454.8250 Press    =     -1518.6191 
Volume   =     10929.3203 
SHAKE stats (type/ave/delta) on step 70000
  2 0.999968 5.84123e-06
  2 109.47 0.000588111
---------------- Step    70000 ----- CPU =    184.1331 (sec) ----------------
TotEng   =     -3295.1539 KinEng   =       667.1842 Temp     =       309.1526 
PotEng   =     -3962.3381 E_bond   =         1.3855 E_angle  =         0.5436 
E_dihed  =         0.0000 E_impro  =         0.0000 E_vdwl   =       772.7601 
E_coul   =     14715.5789 E_long   =    -19452.6062 Press    =        62.5267 
Volume   =     10985.9578 
SHAKE stats (type/ave/delta) on step 80000
  2 1.00004 3.7803e-06
  2 109.47 0.000376452
---------------- Step    80000 ----- CPU =    211.4317 (sec) ----------------
TotEng   =     -3357.0961 KinEng   =       661.1855 Temp     =       306.3730 
PotEng   =     -4018.2816 E_bond   =         2.9383 E_angle  =         1.6567 
E_dihed  =         0.0000 E_impro  =         0.0000 E_vdwl   =       768.8072 
E_coul   =     14662.7629 E_long   =    -19454.4466 Press    =      -104.1625 
Volume   =     10818.9500 
SHAKE stats (type/ave/delta) on step 90000
  2 1.00003 7.07427e-06
  2 109.47 0.000436352
---------------- Step    90000 ----- CPU =    239.0036 (sec) ----------------
TotEng   =     -3322.9592 KinEng   =       660.3700 Temp     =       305.9951 
PotEng   =     -3983.3293 E_bond   =         2.2481 E_angle  =         1.3900 
E_dihed  =         0.0000 E_impro  =         0.0000 E_vdwl   =       732.5845 
E_coul   =     14733.9004 E_long   =    -19453.4521 Press    =      -839.2044 
Volume   =     11115.4823 
SHAKE stats (type/ave/delta) on step 100000
  2 1.00002 5.766e-06
  2 109.47 0.000501237
---------------- Step   100000 ----- CPU =    267.0638 (sec) ----------------
TotEng   =     -3335.9460 KinEng   =       644.2359 Temp     =       298.5190 
PotEng   =     -3980.1818 E_bond   =         4.3487 E_angle  =         2.5731 
E_dihed  =         0.0000 E_impro  =         0.0000 E_vdwl   =       761.3091 
E_coul   =     14703.5558 E_long   =    -19451.9685 Press    =       432.3144 
Volume   =     10679.8375 
SHAKE stats (type/ave/delta) on step 110000
  2 0.999988 9.10378e-06
  2 109.47 0.000700072
---------------- Step   110000 ----- CPU =    294.9662 (sec) ----------------
TotEng   =     -3357.9793 KinEng   =       672.1323 Temp     =       311.4454 
PotEng   =     -4030.1115 E_bond   =         3.2721 E_angle  =         0.9971 
E_dihed  =         0.0000 E_impro  =         0.0000 E_vdwl   =       833.3438 
E_coul   =     14586.8057 E_long   =    -19454.5302 Press    =      1219.0710 
Volume   =     10795.4280 
SHAKE stats (type/ave/delta) on step 120000
  2 0.999993 4.97943e-06
  2 109.47 0.000396932
---------------- Step   120000 ----- CPU =    322.4570 (sec) ----------------
TotEng   =     -3303.0238 KinEng   =       664.8504 Temp     =       308.0712 
PotEng   =     -3967.8742 E_bond   =         1.1035 E_angle  =         2.1340 
E_dihed  =         0.0000 E_impro  =         0.0000 E_vdwl   =       720.4139 
E_coul   =     14761.1226 E_long   =    -19452.6482 Press    =     -1073.1866 
Volume   =     11214.8144 
SHAKE stats (type/ave/delta) on step 130000
  2 0.999877 4.7255e-06
  2 109.47 0.000408802
---------------- Step   130000 ----- CPU =    348.2624 (sec) ----------------
TotEng   =     -3277.3721 KinEng   =       662.0480 Temp     =       306.7726 
PotEng   =     -3939.4201 E_bond   =         3.3929 E_angle  =         1.9231 
E_dihed  =         0.0000 E_impro  =         0.0000 E_vdwl   =       662.0784 
E_coul   =     14846.5143 E_long   =    -19453.3288 Press    =     -2567.7243 
Volume   =     11349.2370 
SHAKE stats (type/ave/delta) on step 140000
  2 1.00007 7.69915e-06
  2 109.47 0.0007668
---------------- Step   140000 ----- CPU =    373.7121 (sec) ----------------
TotEng   =     -3427.6069 KinEng   =       638.9555 Temp     =       296.0723 
PotEng   =     -4066.5625 E_bond   =         2.9502 E_angle  =         0.8088 
E_dihed  =         0.0000 E_impro  =         0.0000 E_vdwl   =       755.3993 
E_coul   =     14629.0448 E_long   =    -19454.7655 Press    =      -682.0745 
Volume   =     10832.0693 
SHAKE stats (type/ave/delta) on step 150000
  2 1.00015 5.6501e-06
  2 109.47 0.000396901
---------------- Step   150000 ----- CPU =    399.2502 (sec) ----------------
TotEng   =     -3314.3157 KinEng   =       662.4802 Temp     =       306.9729 
PotEng   =     -3976.7959 E_bond   =         2.5033 E_angle  =         0.8306 
E_dihed  =         0.0000 E_impro  =         0.0000 E_vdwl   =       781.0345 
E_coul   =     14693.7287 E_long   =    -19454.8930 Press    =       683.2404 
Volume   =     10725.8026 
SHAKE stats (type/ave/delta) on step 160000
  2 1 3.65039e-06
  2 109.47 0.000382451
---------------- Step   160000 ----- CPU =    426.8521 (sec) ----------------
TotEng   =     -3340.2718 KinEng   =       633.3958 Temp     =       293.4961 
PotEng   =     -3973.6676 E_bond   =         1.9167 E_angle  =         1.7614 
E_dihed  =         0.0000 E_impro  =         0.0000 E_vdwl   =       778.2501 
E_coul   =     14697.4502 E_long   =    -19453.0460 Press    =       373.3153 
Volume   =     10971.4787 
SHAKE stats (type/ave/delta) on step 170000
  2 1.00008 4.28541e-06
  2 109.47 0.000375514
---------------- Step   170000 ----- CPU =    454.2522 (sec) ----------------
TotEng   =     -3376.5466 KinEng   =       603.0286 Temp     =       279.4249 
PotEng   =     -3979.5752 E_bond   =         0.8113 E_angle  =         1.5318 
E_dihed  =         0.0000 E_impro  =         0.0000 E_vdwl   =       789.9117 
E_coul   =     14681.5668 E_long   =    -19453.3967 Press    =       403.0921 
Volume   =     10900.9237 
SHAKE stats (type/ave/delta) on step 180000
  2 0.999975 4.99072e-06
  2 109.47 0.000454468
---------------- Step   180000 ----- CPU =    482.0722 (sec) ----------------
TotEng   =     -3294.8118 KinEng   =       669.7653 Temp     =       310.3486 
PotEng   =     -3964.5772 E_bond   =         1.1935 E_angle  =         1.3931 
E_dihed  =         0.0000 E_impro  =         0.0000 E_vdwl   =       805.0197 
E_coul   =     14683.3208 E_long   =    -19455.5044 Press    =       943.7228 
Volume   =     10925.6422 
SHAKE stats (type/ave/delta) on step 190000
  2 1.00006 1.15451e-05
  2 109.47 0.000955053
---------------- Step   190000 ----- CPU =    510.1238 (sec) ----------------
TotEng   =     -3308.4734 KinEng   =       665.1766 Temp     =       308.2223 
PotEng   =     -3973.6500 E_bond   =         1.4870 E_angle  =         0.5036 
E_dihed  =         0.0000 E_impro  =         0.0000 E_vdwl   =       812.2499 
E_coul   =     14663.7011 E_long   =    -19451.5915 Press    =      1173.0998 
Volume   =     10924.3606 
SHAKE stats (type/ave/delta) on step 200000
  2 0.999943 9.21871e-06
  2 109.47 0.000722259
---------------- Step   200000 ----- CPU =    538.0780 (sec) ----------------
TotEng   =     -3277.0349 KinEng   =       682.0176 Temp     =       316.0259 
PotEng   =     -3959.0526 E_bond   =         0.7731 E_angle  =         0.6194 
E_dihed  =         0.0000 E_impro  =         0.0000 E_vdwl   =       731.7265 
E_coul   =     14761.2385 E_long   =    -19453.4100 Press    =      -848.8192 
Volume   =     11068.3921 
SHAKE stats (type/ave/delta) on step 210000
  2 1.00008 6.70505e-06
  2 109.47 0.000529618
---------------- Step   210000 ----- CPU =    565.6262 (sec) ----------------
TotEng   =     -3392.7525 KinEng   =       628.6883 Temp     =       291.3148 
PotEng   =     -4021.4408 E_bond   =         1.9369 E_angle  =         1.7418 
E_dihed  =         0.0000 E_impro  =         0.0000 E_vdwl   =       797.0185 
E_coul   =     14633.2958 E_long   =    -19455.4338 Press    =       261.7868 
Volume   =     10756.9438 
SHAKE stats (type/ave/delta) on step 220000
  2 1.00011 1.03521e-05
  2 109.47 0.0010765
---------------- Step   220000 ----- CPU =    592.9397 (sec) ----------------
TotEng   =     -3361.5487 KinEng   =       616.2354 Temp     =       285.5445 
PotEng   =     -3977.7841 E_bond   =         3.0592 E_angle  =         0.6385 
E_dihed  =         0.0000 E_impro  =         0.0000 E_vdwl   =       756.7096 
E_coul   =     14716.1027 E_long   =    -19454.2941 Press    =       -92.6548 
Volume   =     10914.6304 
SHAKE stats (type/ave/delta) on step 230000
  2 1.00005 3.59711e-06
  2 109.47 0.0003747
---------------- Step   230000 ----- CPU =    620.0437 (sec) ----------------
TotEng   =     -3378.7939 KinEng   =       647.4290 Temp     =       299.9986 
PotEng   =     -4026.2230 E_bond   =         2.1739 E_angle  =         1.2093 
E_dihed  =         0.0000 E_impro  =         0.0000 E_vdwl   =       804.5687 
E_coul   =     14618.1633 E_long   =    -19452.3382 Press    =       -61.8031 
Volume   =     11150.7549 
SHAKE stats (type/ave/delta) on step 240000
  2 0.999974 4.59319e-06
  2 109.47 0.000399592
---------------- Step   240000 ----- CPU =    648.0510 (sec) ----------------
TotEng   =     -3298.1151 KinEng   =       644.7599 Temp     =       298.7618 
PotEng   =     -3942.8750 E_bond   =         1.1509 E_angle  =         2.3531 
E_dihed  =         0.0000 E_impro  =         0.0000 E_vdwl   =       772.5670 
E_coul   =     14734.1573 E_long   =    -19453.1033 Press    =       250.0688 
Volume   =     10967.2526 
SHAKE stats (type/ave/delta) on step 250000
  2 0.999951 4.26787e-06
  2 109.47 0.000390408
---------------- Step   250000 ----- CPU =    676.2364 (sec) ----------------
TotEng   =     -3369.0270 KinEng   =       636.6664 Temp     =       295.0116 
PotEng   =     -4005.6934 E_bond   =         3.6127 E_angle  =         1.4662 
E_dihed  =         0.0000 E_impro  =         0.0000 E_vdwl   =       790.2229 
E_coul   =     14651.9411 E_long   =    -19452.9361 Press    =        64.4043 
Volume   =     10759.6301 
SHAKE stats (type/ave/delta) on step 260000
  2 0.999892 1.09032e-05
  2 109.47 0.000801422
---------------- Step   260000 ----- CPU =    701.5742 (sec) ----------------
TotEng   =     -3318.3439 KinEng   =       635.5892 Temp     =       294.5124 
PotEng   =     -3953.9331 E_bond   =         1.2215 E_angle  =         1.6569 
E_dihed  =         0.0000 E_impro  =         0.0000 E_vdwl   =       784.2662 
E_coul   =     14713.3575 E_long   =    -19454.4351 Press    =       519.0319 
Volume   =     10988.2984 
SHAKE stats (type/ave/delta) on step 270000
  2 1.00002 4.50418e-06
  2 109.47 0.000515525
---------------- Step   270000 ----- CPU =    726.5976 (sec) ----------------
TotEng   =     -3340.8618 KinEng   =       660.7947 Temp     =       306.1919 
PotEng   =     -4001.6565 E_bond   =         2.1724 E_angle  =         2.0441 
E_dihed  =         0.0000 E_impro  =         0.0000 E_vdwl   =       752.7770 
E_coul   =     14697.6336 E_long   =    -19456.2837 Press    =      -196.0876 
Volume   =     10783.9110 
SHAKE stats (type/ave/delta) on step 280000
  2 0.999849 4.16954e-06
  2 109.47 0.000364637
---------------- Step   280000 ----- CPU =    752.5786 (sec) ----------------
TotEng   =     -3344.7107 KinEng   =       645.9473 Temp     =       299.3121 
PotEng   =     -3990.6580 E_bond   =         0.8339 E_angle  =         1.7294 
E_dihed  =         0.0000 E_impro  =         0.0000 E_vdwl   =       806.9175 
E_coul   =     14656.0056 E_long   =    -19456.1445 Press    =       872.5354 
Volume   =     10893.5159 
SHAKE stats (type/ave/delta) on step 290000
  2 0.999904 3.5795e-06
  2 109.47 0.000355278
---------------- Step   290000 ----- CPU =    779.9040 (sec) ----------------
TotEng   =     -3387.4971 KinEng   =       635.3966 Temp     =       294.4232 
PotEng   =     -4022.8937 E_bond   =         1.3953 E_angle  =         1.5720 
E_dihed  =         0.0000 E_impro  =         0.0000 E_vdwl   =       774.8349 
E_coul   =     14654.7688 E_long   =    -19455.4646 Press    =      -220.1884 
Volume   =     10884.7351 
SHAKE stats (type/ave/delta) on step 300000
  2 0.999981 5.95572e-06
  2 109.47 0.000423171
---------------- Step   300000 ----- CPU =    807.3870 (sec) ----------------
TotEng   =     -3445.6077 KinEng   =       618.5112 Temp     =       286.5990 
PotEng   =     -4064.1189 E_bond   =         1.3199 E_angle  =         2.0859 
E_dihed  =         0.0000 E_impro  =         0.0000 E_vdwl   =       792.4468 
E_coul   =     14594.1765 E_long   =    -19454.1480 Press    =       142.2807 
Volume   =     10717.5092 
SHAKE stats (type/ave/delta) on step 310000
  2 1.00003 5.72512e-06
  2 109.47 0.000544422
---------------- Step   310000 ----- CPU =    836.1481 (sec) ----------------
TotEng   =     -3378.6892 KinEng   =       641.7310 Temp     =       297.3584 
PotEng   =     -4020.4202 E_bond   =         0.9761 E_angle  =         2.0945 
E_dihed  =         0.0000 E_impro  =         0.0000 E_vdwl   =       768.7683 
E_coul   =     14661.8264 E_long   =    -19454.0855 Press    =      -162.5455 
Volume   =     10748.7864 
SHAKE stats (type/ave/delta) on step 320000
  2 1.00009 5.08512e-06
  2 109.47 0.000524289
---------------- Step   320000 ----- CPU =    864.4488 (sec) ----------------
TotEng   =     -3318.6467 KinEng   =       670.1949 Temp     =       310.5477 
PotEng   =     -3988.8416 E_bond   =         0.4166 E_angle  =         1.6397 
E_dihed  =         0.0000 E_impro  =         0.0000 E_vdwl   =       778.3773 
E_coul   =     14684.5660 E_long   =    -19453.8412 Press    =        56.7175 
Volume   =     11027.4618 
SHAKE stats (type/ave/delta) on step 330000
  2 0.999923 9.17699e-06
  2 109.47 0.000819605
---------------- Step   330000 ----- CPU =    891.8139 (sec) ----------------
TotEng   =     -3264.5669 KinEng   =       692.4741 Temp     =       320.8712 
PotEng   =     -3957.0410 E_bond   =         1.2171 E_angle  =         2.3291 
E_dihed  =         0.0000 E_impro  =         0.0000 E_vdwl   =       734.9838 
E_coul   =     14758.0446 E_long   =    -19453.6157 Press    =      -109.4319 
Volume   =     10835.3308 
SHAKE stats (type/ave/delta) on step 340000
  2 0.999991 5.5877e-06
  2 109.47 0.000528852
---------------- Step   340000 ----- CPU =    919.1909 (sec) ----------------
TotEng   =     -3340.1969 KinEng   =       647.6646 Temp     =       300.1078 
PotEng   =     -3987.8615 E_bond   =         1.4667 E_angle  =         1.2032 
E_dihed  =         0.0000 E_impro  =         0.0000 E_vdwl   =       742.8382 
E_coul   =     14718.7299 E_long   =    -19452.0994 Press    =      -524.5604 
Volume   =     10876.8720 
SHAKE stats (type/ave/delta) on step 350000
  2 1.00002 9.35535e-06
  2 109.47 0.00131489
---------------- Step   350000 ----- CPU =    946.6879 (sec) ----------------
TotEng   =     -3300.2699 KinEng   =       666.3785 Temp     =       308.7792 
PotEng   =     -3966.6483 E_bond   =         1.0820 E_angle  =         2.1510 
E_dihed  =         0.0000 E_impro  =         0.0000 E_vdwl   =       727.8833 
E_coul   =     14755.2944 E_long   =    -19453.0591 Press    =      -631.8648 
Volume   =     10900.0845 
SHAKE stats (type/ave/delta) on step 360000
  2 0.999995 5.31786e-06
  2 109.47 0.000439471
---------------- Step   360000 ----- CPU =    975.0846 (sec) ----------------
TotEng   =     -3311.3666 KinEng   =       629.8671 Temp     =       291.8610 
PotEng   =     -3941.2336 E_bond   =         3.4205 E_angle  =         2.0273 
E_dihed  =         0.0000 E_impro  =         0.0000 E_vdwl   =       701.2462 
E_coul   =     14805.4689 E_long   =    -19453.3965 Press    =     -1076.4497 
Volume   =     10835.4508 
SHAKE stats (type/ave/delta) on step 370000
  2 1.00002 7.1818e-06
  2 109.47 0.000687076
---------------- Step   370000 ----- CPU =   1003.9867 (sec) ----------------
TotEng   =     -3287.8046 KinEng   =       649.3121 Temp     =       300.8712 
PotEng   =     -3937.1167 E_bond   =         2.8921 E_angle  =         1.6274 
E_dihed  =         0.0000 E_impro  =         0.0000 E_vdwl   =       778.6539 
E_coul   =     14733.2462 E_long   =    -19453.5363 Press    =      1053.3857 
Volume   =     10597.7628 
SHAKE stats (type/ave/delta) on step 380000
  2 1.00001 5.75348e-06
  2 109.47 0.000571728
---------------- Step   380000 ----- CPU =   1030.8622 (sec) ----------------
TotEng   =     -3324.7726 KinEng   =       650.5075 Temp     =       301.4251 
PotEng   =     -3975.2800 E_bond   =         4.2905 E_angle  =         2.1355 
E_dihed  =         0.0000 E_impro  =         0.0000 E_vdwl   =       748.5856 
E_coul   =     14725.1795 E_long   =    -19455.4711 Press    =      -773.0263 
Volume   =     10918.1964 
SHAKE stats (type/ave/delta) on step 390000
  2 1.00008 5.20587e-06
  2 109.47 0.000470869
---------------- Step   390000 ----- CPU =   1056.7059 (sec) ----------------
TotEng   =     -3353.5759 KinEng   =       654.7624 Temp     =       303.3967 
PotEng   =     -4008.3384 E_bond   =         0.3554 E_angle  =         0.8823 
E_dihed  =         0.0000 E_impro  =         0.0000 E_vdwl   =       773.1527 
E_coul   =     14671.4999 E_long   =    -19454.2287 Press    =      -146.6322 
Volume   =     10858.7426 
SHAKE stats (type/ave/delta) on step 400000
  2 0.999976 4.3181e-06
  2 109.47 0.000457565
---------------- Step   400000 ----- CPU =   1083.0799 (sec) ----------------
TotEng   =     -3371.0127 KinEng   =       635.2878 Temp     =       294.3728 
PotEng   =     -4006.3005 E_bond   =         2.5474 E_angle  =         1.6470 
E_dihed  =         0.0000 E_impro  =         0.0000 E_vdwl   =       780.7395 
E_coul   =     14662.2216 E_long   =    -19453.4560 Press    =       184.9523 
Volume   =     10773.9445 
SHAKE stats (type/ave/delta) on step 410000
  2 0.999954 9.49809e-06
  2 109.47 0.00101713
---------------- Step   410000 ----- CPU =   1110.8949 (sec) ----------------
TotEng   =     -3346.0565 KinEng   =       668.0193 Temp     =       309.5395 
PotEng   =     -4014.0758 E_bond   =         2.3241 E_angle  =         1.3710 
E_dihed  =         0.0000 E_impro  =         0.0000 E_vdwl   =       812.6540 
E_coul   =     14624.2585 E_long   =    -19454.6833 Press    =       254.2379 
Volume   =     10818.3375 
SHAKE stats (type/ave/delta) on step 420000
  2 1.00005 6.27695e-06
  2 109.47 0.000615127
---------------- Step   420000 ----- CPU =   1138.6337 (sec) ----------------
TotEng   =     -3345.2568 KinEng   =       641.2381 Temp     =       297.1299 
PotEng   =     -3986.4949 E_bond   =         2.4225 E_angle  =         1.2212 
E_dihed  =         0.0000 E_impro  =         0.0000 E_vdwl   =       748.2391 
E_coul   =     14714.5073 E_long   =    -19452.8850 Press    =      -417.9786 
Volume   =     10707.0192 
SHAKE stats (type/ave/delta) on step 430000
  2 1.00003 5.81315e-06
  2 109.47 0.000492984
---------------- Step   430000 ----- CPU =   1165.7620 (sec) ----------------
TotEng   =     -3354.5664 KinEng   =       674.3325 Temp     =       312.4649 
PotEng   =     -4028.8989 E_bond   =         2.4896 E_angle  =         1.7587 
E_dihed  =         0.0000 E_impro  =         0.0000 E_vdwl   =       756.3396 
E_coul   =     14665.7469 E_long   =    -19455.2337 Press    =        33.7895 
Volume   =     10734.6175 
SHAKE stats (type/ave/delta) on step 440000
  2 0.999968 3.59322e-06
  2 109.47 0.000361884
---------------- Step   440000 ----- CPU =   1193.1960 (sec) ----------------
TotEng   =     -3384.6458 KinEng   =       622.7017 Temp     =       288.5408 
PotEng   =     -4007.3475 E_bond   =         3.2008 E_angle  =         2.8235 
E_dihed  =         0.0000 E_impro  =         0.0000 E_vdwl   =       753.0841 
E_coul   =     14688.7786 E_long   =    -19455.2344 Press    =      -223.7159 
Volume   =     10777.3516 
SHAKE stats (type/ave/delta) on step 450000
  2 1.00001 4.12698e-06
  2 109.47 0.000411513
---------------- Step   450000 ----- CPU =   1221.6965 (sec) ----------------
TotEng   =     -3249.5789 KinEng   =       666.3992 Temp     =       308.7888 
PotEng   =     -3915.9780 E_bond   =         1.9279 E_angle  =         3.4771 
E_dihed  =         0.0000 E_impro  =         0.0000 E_vdwl   =       722.8409 
E_coul   =     14810.2562 E_long   =    -19454.4800 Press    =      -797.8546 
Volume   =     11120.6243 
SHAKE stats (type/ave/delta) on step 460000
  2 0.999934 8.94759e-06
  2 109.47 0.000855387
---------------- Step   460000 ----- CPU =   1249.5861 (sec) ----------------
TotEng   =     -3350.0825 KinEng   =       625.7707 Temp     =       289.9628 
PotEng   =     -3975.8532 E_bond   =         2.7392 E_angle  =         1.4882 
E_dihed  =         0.0000 E_impro  =         0.0000 E_vdwl   =       817.6081 
E_coul   =     14655.3439 E_long   =    -19453.0326 Press    =      1165.8990 
Volume   =     10943.9174 
SHAKE stats (type/ave/delta) on step 470000
  2 1.00006 3.81088e-06
  2 109.47 0.000403703
---------------- Step   470000 ----- CPU =   1276.9858 (sec) ----------------
TotEng   =     -3350.3589 KinEng   =       678.6977 Temp     =       314.4876 
PotEng   =     -4029.0566 E_bond   =         1.4300 E_angle  =         2.7147 
E_dihed  =         0.0000 E_impro  =         0.0000 E_vdwl   =       771.6034 
E_coul   =     14645.1401 E_long   =    -19449.9448 Press    =      -478.0299 
Volume   =     10973.8973 
SHAKE stats (type/ave/delta) on step 480000
  2 0.999952 1.51236e-05
  2 109.47 0.000911135
---------------- Step   480000 ----- CPU =   1305.4473 (sec) ----------------
TotEng   =     -3391.4874 KinEng   =       640.8898 Temp     =       296.9686 
PotEng   =     -4032.3773 E_bond   =         2.8954 E_angle  =         2.4673 
E_dihed  =         0.0000 E_impro  =         0.0000 E_vdwl   =       783.4484 
E_coul   =     14634.4747 E_long   =    -19455.6630 Press    =        25.5867 
Volume   =     10948.7385 
SHAKE stats (type/ave/delta) on step 490000
  2 0.999818 3.9336e-06
  2 109.47 0.000360981
---------------- Step   490000 ----- CPU =   1333.6554 (sec) ----------------
TotEng   =     -3348.2049 KinEng   =       584.9306 Temp     =       271.0388 
PotEng   =     -3933.1356 E_bond   =         1.6418 E_angle  =         4.2019 
E_dihed  =         0.0000 E_impro  =         0.0000 E_vdwl   =       736.7984 
E_coul   =     14779.0619 E_long   =    -19454.8395 Press    =      -327.4571 
Volume   =     10974.1553 
SHAKE stats (type/ave/delta) on step 500000
  2 0.999987 7.77226e-06
  2 109.47 0.00095553
---------------- Step   500000 ----- CPU =   1360.7761 (sec) ----------------
TotEng   =     -3272.3487 KinEng   =       676.0918 Temp     =       313.2801 
PotEng   =     -3948.4406 E_bond   =         2.7252 E_angle  =         3.5891 
E_dihed  =         0.0000 E_impro  =         0.0000 E_vdwl   =       765.7929 
E_coul   =     14730.7403 E_long   =    -19451.2881 Press    =       -90.5744 
Volume   =     11024.5534 
SHAKE stats (type/ave/delta) on step 510000
  2 1.00003 8.64469e-06
  2 109.47 0.000796567
---------------- Step   510000 ----- CPU =   1386.1991 (sec) ----------------
TotEng   =     -3304.5824 KinEng   =       656.5702 Temp     =       304.2344 
PotEng   =     -3961.1526 E_bond   =         3.6501 E_angle  =         1.3497 
E_dihed  =         0.0000 E_impro  =         0.0000 E_vdwl   =       760.9413 
E_coul   =     14725.2432 E_long   =    -19452.3370 Press    =       114.7274 
Volume   =     10789.1246 
SHAKE stats (type/ave/delta) on step 520000
  2 0.999887 1.12268e-05
  2 109.47 0.00100803
---------------- Step   520000 ----- CPU =   1412.7408 (sec) ----------------
TotEng   =     -3369.2249 KinEng   =       635.0532 Temp     =       294.2641 
PotEng   =     -4004.2781 E_bond   =         1.9332 E_angle  =         1.8087 
E_dihed  =         0.0000 E_impro  =         0.0000 E_vdwl   =       769.3049 
E_coul   =     14678.4617 E_long   =    -19455.7866 Press    =       -59.7580 
Volume   =     10967.2865 
SHAKE stats (type/ave/delta) on step 530000
  2 0.999967 5.48854e-06
  2 109.47 0.000605266
---------------- Step   530000 ----- CPU =   1439.7481 (sec) ----------------
TotEng   =     -3364.9632 KinEng   =       606.5198 Temp     =       281.0426 
PotEng   =     -3971.4830 E_bond   =         1.6710 E_angle  =         2.2134 
E_dihed  =         0.0000 E_impro  =         0.0000 E_vdwl   =       748.1536 
E_coul   =     14728.4995 E_long   =    -19452.0203 Press    =      -738.9870 
Volume   =     11096.6651 
SHAKE stats (type/ave/delta) on step 540000
  2 1.00004 9.87308e-06
  2 109.47 0.000889947
---------------- Step   540000 ----- CPU =   1467.2975 (sec) ----------------
TotEng   =     -3341.2111 KinEng   =       633.6849 Temp     =       293.6300 
PotEng   =     -3974.8961 E_bond   =         0.4272 E_angle  =         2.1049 
E_dihed  =         0.0000 E_impro  =         0.0000 E_vdwl   =       768.8624 
E_coul   =     14706.8167 E_long   =    -19453.1072 Press    =      -141.5573 
Volume   =     11110.2547 
SHAKE stats (type/ave/delta) on step 550000
  2 1.00003 6.9009e-06
  2 109.47 0.000513912
---------------- Step   550000 ----- CPU =   1494.5394 (sec) ----------------
TotEng   =     -3310.3583 KinEng   =       658.8588 Temp     =       305.2949 
PotEng   =     -3969.2171 E_bond   =         2.7478 E_angle  =         2.7410 
E_dihed  =         0.0000 E_impro  =         0.0000 E_vdwl   =       756.9376 
E_coul   =     14724.6565 E_long   =    -19456.2999 Press    =      -688.2138 
Volume   =     11180.7094 
SHAKE stats (type/ave/delta) on step 560000
  2 1.00013 5.54149e-06
  2 109.47 0.000519118
---------------- Step   560000 ----- CPU =   1521.5511 (sec) ----------------
TotEng   =     -3385.7412 KinEng   =       669.6908 Temp     =       310.3141 
PotEng   =     -4055.4320 E_bond   =         0.1806 E_angle  =         2.9814 
E_dihed  =         0.0000 E_impro  =         0.0000 E_vdwl   =       803.6201 
E_coul   =     14591.8086 E_long   =    -19454.0227 Press    =       672.5446 
Volume   =     10727.2287 
SHAKE stats (type/ave/delta) on step 570000
  2 1.00002 3.4902e-06
  2 109.47 0.000354617
---------------- Step   570000 ----- CPU =   1548.5459 (sec) ----------------
TotEng   =     -3276.4452 KinEng   =       707.8477 Temp     =       327.9948 
PotEng   =     -3984.2929 E_bond   =         3.2778 E_angle  =         3.1912 
E_dihed  =         0.0000 E_impro  =         0.0000 E_vdwl   =       767.9726 
E_coul   =     14694.2035 E_long   =    -19452.9380 Press    =       525.7875 
Volume   =     10808.3090 
SHAKE stats (type/ave/delta) on step 580000
  2 0.999985 4.36798e-06
  2 109.47 0.000361716
---------------- Step   580000 ----- CPU =   1576.0013 (sec) ----------------
TotEng   =     -3364.4777 KinEng   =       633.8835 Temp     =       293.7221 
PotEng   =     -3998.3612 E_bond   =         2.3380 E_angle  =         2.0848 
E_dihed  =         0.0000 E_impro  =         0.0000 E_vdwl   =       815.0214 
E_coul   =     14635.8441 E_long   =    -19453.6495 Press    =       786.7530 
Volume   =     10947.3344 
SHAKE stats (type/ave/delta) on step 590000
  2 1.00013 7.31446e-06
  2 109.47 0.000631275
---------------- Step   590000 ----- CPU =   1603.5826 (sec) ----------------
TotEng   =     -3375.6110 KinEng   =       638.6118 Temp     =       295.9130 
PotEng   =     -4014.2229 E_bond   =         0.3353 E_angle  =         0.7156 
E_dihed  =         0.0000 E_impro  =         0.0000 E_vdwl   =       816.1023 
E_coul   =     14622.8091 E_long   =    -19454.1852 Press    =       904.6087 
Volume   =     10695.5965 
SHAKE stats (type/ave/delta) on step 600000
  2 1.00002 1.22422e-05
  2 109.47 0.000975038
---------------- Step   600000 ----- CPU =   1631.1048 (sec) ----------------
TotEng   =     -3328.8186 KinEng   =       656.4750 Temp     =       304.1903 
PotEng   =     -3985.2936 E_bond   =         0.5323 E_angle  =         1.1430 
E_dihed  =         0.0000 E_impro  =         0.0000 E_vdwl   =       715.3173 
E_coul   =     14751.4112 E_long   =    -19453.6975 Press    =      -819.4548 
Volume   =     10914.7894 
SHAKE stats (type/ave/delta) on step 610000
  2 1.00007 6.74192e-06
  2 109.47 0.000613267
---------------- Step   610000 ----- CPU =   1658.6145 (sec) ----------------
TotEng   =     -3306.0009 KinEng   =       663.0000 Temp     =       307.2138 
PotEng   =     -3969.0009 E_bond   =         2.4138 E_angle  =         4.6589 
E_dihed  =         0.0000 E_impro  =         0.0000 E_vdwl   =       756.4409 
E_coul   =     14717.6819 E_long   =    -19450.1965 Press    =       146.7521 
Volume   =     10811.0965 
SHAKE stats (type/ave/delta) on step 620000
  2 1.00002 4.05346e-06
  2 109.47 0.000359318
---------------- Step   620000 ----- CPU =   1687.1264 (sec) ----------------
TotEng   =     -3384.0805 KinEng   =       652.6948 Temp     =       302.4387 
PotEng   =     -4036.7753 E_bond   =         1.7860 E_angle  =         0.9845 
E_dihed  =         0.0000 E_impro  =         0.0000 E_vdwl   =       808.7628 
E_coul   =     14606.3478 E_long   =    -19454.6565 Press    =       341.5873 
Volume   =     10925.4700 
SHAKE stats (type/ave/delta) on step 630000
  2 1.00009 6.10633e-06
  2 109.47 0.000473244
---------------- Step   630000 ----- CPU =   1714.0364 (sec) ----------------
TotEng   =     -3325.6690 KinEng   =       655.6028 Temp     =       303.7861 
PotEng   =     -3981.2719 E_bond   =         2.5148 E_angle  =         1.4152 
E_dihed  =         0.0000 E_impro  =         0.0000 E_vdwl   =       802.4802 
E_coul   =     14667.4348 E_long   =    -19455.1169 Press    =       300.6909 
Volume   =     10980.2390 
SHAKE stats (type/ave/delta) on step 640000
  2 0.999929 3.95149e-06
  2 109.47 0.000440627
---------------- Step   640000 ----- CPU =   1739.8841 (sec) ----------------
TotEng   =     -3334.2874 KinEng   =       635.1207 Temp     =       294.2953 
PotEng   =     -3969.4080 E_bond   =         0.6452 E_angle  =         3.7949 
E_dihed  =         0.0000 E_impro  =         0.0000 E_vdwl   =       713.6210 
E_coul   =     14766.7153 E_long   =    -19454.1844 Press    =     -1269.3743 
Volume   =     10969.7033 
SHAKE stats (type/ave/delta) on step 650000
  2 0.999962 3.95138e-06
  2 109.47 0.000381937
---------------- Step   650000 ----- CPU =   1765.4355 (sec) ----------------
TotEng   =     -3348.6142 KinEng   =       607.2729 Temp     =       281.3915 
PotEng   =     -3955.8872 E_bond   =         0.8773 E_angle  =         1.8916 
E_dihed  =         0.0000 E_impro  =         0.0000 E_vdwl   =       736.3796 
E_coul   =     14760.6125 E_long   =    -19455.6481 Press    =        16.1710 
Volume   =     10650.5477 
SHAKE stats (type/ave/delta) on step 660000
  2 0.999934 5.10735e-06
  2 109.47 0.000429413
---------------- Step   660000 ----- CPU =   1793.9021 (sec) ----------------
TotEng   =     -3390.5328 KinEng   =       649.6071 Temp     =       301.0079 
PotEng   =     -4040.1399 E_bond   =         1.5547 E_angle  =         0.9476 
E_dihed  =         0.0000 E_impro  =         0.0000 E_vdwl   =       826.0320 
E_coul   =     14585.3413 E_long   =    -19454.0155 Press    =       574.9823 
Volume   =     10858.2576 
SHAKE stats (type/ave/delta) on step 670000
  2 0.99993 7.18581e-06
  2 109.47 0.0006241
---------------- Step   670000 ----- CPU =   1821.6553 (sec) ----------------
TotEng   =     -3322.6635 KinEng   =       673.4561 Temp     =       312.0588 
PotEng   =     -3996.1197 E_bond   =         0.6490 E_angle  =         3.0067 
E_dihed  =         0.0000 E_impro  =         0.0000 E_vdwl   =       725.4806 
E_coul   =     14728.6296 E_long   =    -19453.8856 Press    =      -845.1785 
Volume   =     10969.1918 
SHAKE stats (type/ave/delta) on step 680000
  2 0.999913 1.05536e-05
  2 109.47 0.00066938
---------------- Step   680000 ----- CPU =   1849.9268 (sec) ----------------
TotEng   =     -3324.1326 KinEng   =       663.0442 Temp     =       307.2342 
PotEng   =     -3987.1768 E_bond   =         1.8586 E_angle  =         0.7961 
E_dihed  =         0.0000 E_impro  =         0.0000 E_vdwl   =       765.5679 
E_coul   =     14695.1854 E_long   =    -19450.5847 Press    =       120.5630 
Volume   =     10829.0311 
SHAKE stats (type/ave/delta) on step 690000
  2 1.00007 4.52609e-06
  2 109.47 0.000376273
---------------- Step   690000 ----- CPU =   1877.8255 (sec) ----------------
TotEng   =     -3323.3920 KinEng   =       634.6038 Temp     =       294.0558 
PotEng   =     -3957.9958 E_bond   =         1.6786 E_angle  =         0.4841 
E_dihed  =         0.0000 E_impro  =         0.0000 E_vdwl   =       762.2289 
E_coul   =     14727.6081 E_long   =    -19449.9955 Press    =        66.6595 
Volume   =     10939.8248 
SHAKE stats (type/ave/delta) on step 700000
  2 0.999972 6.22374e-06
  2 109.47 0.000799959
---------------- Step   700000 ----- CPU =   1905.6691 (sec) ----------------
TotEng   =     -3326.2481 KinEng   =       638.2863 Temp     =       295.7622 
PotEng   =     -3964.5344 E_bond   =         1.5324 E_angle  =         3.1886 
E_dihed  =         0.0000 E_impro  =         0.0000 E_vdwl   =       737.2893 
E_coul   =     14747.4189 E_long   =    -19453.9636 Press    =      -482.7961 
Volume   =     10911.2653 
SHAKE stats (type/ave/delta) on step 710000
  2 1.00002 5.1023e-06
  2 109.47 0.000410474
---------------- Step   710000 ----- CPU =   1933.6341 (sec) ----------------
TotEng   =     -3291.1537 KinEng   =       694.5407 Temp     =       321.8287 
PotEng   =     -3985.6944 E_bond   =         1.5377 E_angle  =         1.0599 
E_dihed  =         0.0000 E_impro  =         0.0000 E_vdwl   =       763.9468 
E_coul   =     14702.5699 E_long   =    -19454.8086 Press    =       -51.2648 
Volume   =     11032.0902 
SHAKE stats (type/ave/delta) on step 720000
  2 0.999979 7.33657e-06
  2 109.47 0.000685115
---------------- Step   720000 ----- CPU =   1961.6320 (sec) ----------------
TotEng   =     -3359.4063 KinEng   =       651.9505 Temp     =       302.0938 
PotEng   =     -4011.3568 E_bond   =         1.5614 E_angle  =         2.6728 
E_dihed  =         0.0000 E_impro  =         0.0000 E_vdwl   =       712.9760 
E_coul   =     14723.3093 E_long   =    -19451.8763 Press    =     -1073.7393 
Volume   =     10662.1045 
SHAKE stats (type/ave/delta) on step 730000
  2 1.00014 1.11428e-05
  2 109.47 0.00097613
---------------- Step   730000 ----- CPU =   1989.3431 (sec) ----------------
TotEng   =     -3377.7486 KinEng   =       661.5748 Temp     =       306.5534 
PotEng   =     -4039.3233 E_bond   =         0.7995 E_angle  =         3.1036 
E_dihed  =         0.0000 E_impro  =         0.0000 E_vdwl   =       744.6845 
E_coul   =     14667.3943 E_long   =    -19455.3053 Press    =      -612.4054 
Volume   =     10802.5234 
SHAKE stats (type/ave/delta) on step 740000
  2 1.00006 1.02808e-05
  2 109.47 0.000887123
---------------- Step   740000 ----- CPU =   2016.9105 (sec) ----------------
TotEng   =     -3385.1326 KinEng   =       622.7390 Temp     =       288.5581 
PotEng   =     -4007.8717 E_bond   =         1.9241 E_angle  =         2.0988 
E_dihed  =         0.0000 E_impro  =         0.0000 E_vdwl   =       753.9814 
E_coul   =     14688.0941 E_long   =    -19453.9701 Press    =      -736.5223 
Volume   =     10931.2538 
SHAKE stats (type/ave/delta) on step 750000
  2 1.00019 5.35144e-06
  2 109.47 0.000509104
---------------- Step   750000 ----- CPU =   2044.6788 (sec) ----------------
TotEng   =     -3328.2209 KinEng   =       650.4529 Temp     =       301.3998 
PotEng   =     -3978.6738 E_bond   =         1.3967 E_angle  =         1.1184 
E_dihed  =         0.0000 E_impro  =         0.0000 E_vdwl   =       830.4149 
E_coul   =     14643.4952 E_long   =    -19455.0989 Press    =      1755.3643 
Volume   =     10683.5673 
SHAKE stats (type/ave/delta) on step 760000
  2 1 1.1483e-05
  2 109.47 0.00103599
---------------- Step   760000 ----- CPU =   2069.6566 (sec) ----------------
TotEng   =     -3320.0329 KinEng   =       660.5470 Temp     =       306.0771 
PotEng   =     -3980.5799 E_bond   =         1.2012 E_angle  =         2.9407 
E_dihed  =         0.0000 E_impro  =         0.0000 E_vdwl   =       771.5463 
E_coul   =     14698.2984 E_long   =    -19454.5664 Press    =       -58.6804 
Volume   =     10879.6322 
SHAKE stats (type/ave/delta) on step 770000
  2 0.99987 8.99748e-06
  2 109.47 0.000817592
---------------- Step   770000 ----- CPU =   2095.1134 (sec) ----------------
TotEng   =     -3341.7572 KinEng   =       629.5500 Temp     =       291.7141 
PotEng   =     -3971.3072 E_bond   =         2.5192 E_angle  =         3.3912 
E_dihed  =         0.0000 E_impro  =         0.0000 E_vdwl   =       760.9335 
E_coul   =     14716.2881 E_long   =    -19454.4392 Press    =       -23.3013 
Volume   =     10714.9194 
SHAKE stats (type/ave/delta) on step 780000
  2 0.999959 5.3412e-06
  2 109.47 0.000426883
---------------- Step   780000 ----- CPU =   2121.6679 (sec) ----------------
TotEng   =     -3369.5463 KinEng   =       653.0972 Temp     =       302.6251 
PotEng   =     -4022.6436 E_bond   =         1.2932 E_angle  =         3.2048 
E_dihed  =         0.0000 E_impro  =         0.0000 E_vdwl   =       765.0246 
E_coul   =     14662.0830 E_long   =    -19454.2492 Press    =      -638.5436 
Volume   =     11033.1032 
SHAKE stats (type/ave/delta) on step 790000
  2 0.99993 3.47905e-06
  2 109.47 0.000376356
---------------- Step   790000 ----- CPU =   2149.7908 (sec) ----------------
TotEng   =     -3356.1164 KinEng   =       649.4370 Temp     =       300.9291 
PotEng   =     -4005.5534 E_bond   =         3.0493 E_angle  =         1.2422 
E_dihed  =         0.0000 E_impro  =         0.0000 E_vdwl   =       775.5896 
E_coul   =     14667.2990 E_long   =    -19452.7334 Press    =      -112.1343 
Volume   =     10742.1053 
SHAKE stats (type/ave/delta) on step 800000
  2 1.00002 7.63037e-06
  2 109.47 0.000693168
---------------- Step   800000 ----- CPU =   2177.6951 (sec) ----------------
TotEng   =     -3388.7024 KinEng   =       640.0358 Temp     =       296.5729 
PotEng   =     -4028.7383 E_bond   =         0.2075 E_angle  =         2.6814 
E_dihed  =         0.0000 E_impro  =         0.0000 E_vdwl   =       779.2479 
E_coul   =     14644.6539 E_long   =    -19455.5290 Press    =      -396.1451 
Volume   =     11071.9084 
SHAKE stats (type/ave/delta) on step 810000
  2 0.999961 1.12205e-05
  2 109.47 0.000929355
---------------- Step   810000 ----- CPU =   2205.0681 (sec) ----------------
TotEng   =     -3295.8983 KinEng   =       635.6977 Temp     =       294.5627 
PotEng   =     -3931.5960 E_bond   =         1.0874 E_angle  =         2.5870 
E_dihed  =         0.0000 E_impro  =         0.0000 E_vdwl   =       757.6189 
E_coul   =     14759.8761 E_long   =    -19452.7654 Press    =      -213.0925 
Volume   =     11249.2974 
SHAKE stats (type/ave/delta) on step 820000
  2 1.00003 3.86903e-06
  2 109.47 0.000399426
---------------- Step   820000 ----- CPU =   2232.1937 (sec) ----------------
TotEng   =     -3420.2992 KinEng   =       620.8781 Temp     =       287.6958 
PotEng   =     -4041.1773 E_bond   =         0.1554 E_angle  =         2.2973 
E_dihed  =         0.0000 E_impro  =         0.0000 E_vdwl   =       772.3999 
E_coul   =     14640.2731 E_long   =    -19456.3030 Press    =       148.5168 
Volume   =     10648.5905 
SHAKE stats (type/ave/delta) on step 830000
  2 0.99988 1.11853e-05
  2 109.47 0.00108437
---------------- Step   830000 ----- CPU =   2260.0277 (sec) ----------------
TotEng   =     -3279.8916 KinEng   =       677.2810 Temp     =       313.8311 
PotEng   =     -3957.1725 E_bond   =         1.5219 E_angle  =         0.8535 
E_dihed  =         0.0000 E_impro  =         0.0000 E_vdwl   =       720.2506 
E_coul   =     14775.4544 E_long   =    -19455.2530 Press    =      -777.1404 
Volume   =     10994.1865 
SHAKE stats (type/ave/delta) on step 840000
  2 1.00005 1.22739e-05
  2 109.47 0.000909042
---------------- Step   840000 ----- CPU =   2287.4164 (sec) ----------------
TotEng   =     -3311.6345 KinEng   =       655.8123 Temp     =       303.8832 
PotEng   =     -3967.4468 E_bond   =         1.2059 E_angle  =         1.7530 
E_dihed  =         0.0000 E_impro  =         0.0000 E_vdwl   =       787.4739 
E_coul   =     14695.7105 E_long   =    -19453.5901 Press    =       821.3846 
Volume   =     10821.8688 
SHAKE stats (type/ave/delta) on step 850000
  2 1.00006 3.53793e-06
  2 109.47 0.000378046
---------------- Step   850000 ----- CPU =   2314.7454 (sec) ----------------
TotEng   =     -3340.3305 KinEng   =       657.2990 Temp     =       304.5721 
PotEng   =     -3997.6294 E_bond   =         2.0068 E_angle  =         2.1604 
E_dihed  =         0.0000 E_impro  =         0.0000 E_vdwl   =       831.0464 
E_coul   =     14621.2717 E_long   =    -19454.1148 Press    =       990.6085 
Volume   =     10756.8567 
SHAKE stats (type/ave/delta) on step 860000
  2 0.999978 5.54902e-06
  2 109.47 0.000602485
---------------- Step   860000 ----- CPU =   2342.1454 (sec) ----------------
TotEng   =     -3341.5530 KinEng   =       637.1792 Temp     =       295.2492 
PotEng   =     -3978.7322 E_bond   =         2.1320 E_angle  =         1.8274 
E_dihed  =         0.0000 E_impro  =         0.0000 E_vdwl   =       744.6120 
E_coul   =     14725.3470 E_long   =    -19452.6506 Press    =      -717.3183 
Volume   =     10869.2435 
SHAKE stats (type/ave/delta) on step 870000
  2 1.00009 5.52113e-06
  2 109.47 0.000439841
---------------- Step   870000 ----- CPU =   2369.9075 (sec) ----------------
TotEng   =     -3291.4829 KinEng   =       668.0221 Temp     =       309.5409 
PotEng   =     -3959.5050 E_bond   =         1.5952 E_angle  =         1.7722 
E_dihed  =         0.0000 E_impro  =         0.0000 E_vdwl   =       747.4037 
E_coul   =     14743.4095 E_long   =    -19453.6857 Press    =      -502.5518 
Volume   =     11054.9827 
SHAKE stats (type/ave/delta) on step 880000
  2 1.00011 6.08667e-06
  2 109.47 0.000443825
---------------- Step   880000 ----- CPU =   2396.3103 (sec) ----------------
TotEng   =     -3321.1016 KinEng   =       646.5979 Temp     =       299.6136 
PotEng   =     -3967.6995 E_bond   =         0.7525 E_angle  =         1.5302 
E_dihed  =         0.0000 E_impro  =         0.0000 E_vdwl   =       798.0105 
E_coul   =     14685.7303 E_long   =    -19453.7230 Press    =       712.1308 
Volume   =     10857.6644 
SHAKE stats (type/ave/delta) on step 890000
  2 1.00002 4.06038e-06
  2 109.47 0.000385017
---------------- Step   890000 ----- CPU =   2421.9019 (sec) ----------------
TotEng   =     -3358.1412 KinEng   =       625.2100 Temp     =       289.7030 
PotEng   =     -3983.3512 E_bond   =         1.1512 E_angle  =         0.9148 
E_dihed  =         0.0000 E_impro  =         0.0000 E_vdwl   =       788.5569 
E_coul   =     14678.4046 E_long   =    -19452.3787 Press    =       335.7436 
Volume   =     10914.8292 
SHAKE stats (type/ave/delta) on step 900000
  2 1.00004 3.94177e-06
  2 109.47 0.000398876
---------------- Step   900000 ----- CPU =   2447.6275 (sec) ----------------
TotEng   =     -3355.2682 KinEng   =       620.8019 Temp     =       287.6604 
PotEng   =     -3976.0701 E_bond   =         1.7481 E_angle  =         0.8642 
E_dihed  =         0.0000 E_impro  =         0.0000 E_vdwl   =       760.9605 
E_coul   =     14712.8878 E_long   =    -19452.5307 Press    =       120.7001 
Volume   =     10687.6536 
SHAKE stats (type/ave/delta) on step 910000
  2 1.00013 1.17376e-05
  2 109.47 0.000725099
---------------- Step   910000 ----- CPU =   2475.3792 (sec) ----------------
TotEng   =     -3392.1950 KinEng   =       606.6041 Temp     =       281.0816 
PotEng   =     -3998.7991 E_bond   =         1.4201 E_angle  =         1.2763 
E_dihed  =         0.0000 E_impro  =         0.0000 E_vdwl   =       818.3210 
E_coul   =     14634.6659 E_long   =    -19454.4824 Press    =       734.5885 
Volume   =     10914.8571 
SHAKE stats (type/ave/delta) on step 920000
  2 0.999997 5.70262e-06
  2 109.47 0.000621676
---------------- Step   920000 ----- CPU =   2503.0194 (sec) ----------------
TotEng   =     -3321.4954 KinEng   =       646.5450 Temp     =       299.5890 
PotEng   =     -3968.0404 E_bond   =         1.9565 E_angle  =         0.7185 
E_dihed  =         0.0000 E_impro  =         0.0000 E_vdwl   =       743.6166 
E_coul   =     14738.3341 E_long   =    -19452.6660 Press    =      -542.1000 
Volume   =     10904.5095 
SHAKE stats (type/ave/delta) on step 930000
  2 1.00019 3.28249e-06
  2 109.47 0.000389186
---------------- Step   930000 ----- CPU =   2530.6379 (sec) ----------------
TotEng   =     -3402.2620 KinEng   =       629.0019 Temp     =       291.4601 
PotEng   =     -4031.2640 E_bond   =         1.4600 E_angle  =         0.5586 
E_dihed  =         0.0000 E_impro  =         0.0000 E_vdwl   =       799.5323 
E_coul   =     14618.5842 E_long   =    -19451.3991 Press    =        30.2002 
Volume   =     10966.4007 
SHAKE stats (type/ave/delta) on step 940000
  2 1.00006 8.54096e-06
  2 109.47 0.000801641
---------------- Step   940000 ----- CPU =   2558.2393 (sec) ----------------
TotEng   =     -3331.9766 KinEng   =       642.8375 Temp     =       297.8711 
PotEng   =     -3974.8140 E_bond   =         1.8088 E_angle  =         1.5093 
E_dihed  =         0.0000 E_impro  =         0.0000 E_vdwl   =       809.6216 
E_coul   =     14664.6377 E_long   =    -19452.3915 Press    =       759.6114 
Volume   =     11037.2011 
SHAKE stats (type/ave/delta) on step 950000
  2 0.999952 7.43564e-06
  2 109.47 0.00097107
---------------- Step   950000 ----- CPU =   2586.2774 (sec) ----------------
TotEng   =     -3298.9394 KinEng   =       671.8485 Temp     =       311.3139 
PotEng   =     -3970.7878 E_bond   =         1.2107 E_angle  =         0.6020 
E_dihed  =         0.0000 E_impro  =         0.0000 E_vdwl   =       798.1388 
E_coul   =     14681.1354 E_long   =    -19451.8747 Press    =       841.5992 
Volume   =     10861.9523 
SHAKE stats (type/ave/delta) on step 960000
  2 0.999944 1.46618e-05
  2 109.47 0.000924682
---------------- Step   960000 ----- CPU =   2614.0915 (sec) ----------------
TotEng   =     -3327.4765 KinEng   =       669.6226 Temp     =       310.2825 
PotEng   =     -3997.0990 E_bond   =         1.8428 E_angle  =         1.5471 
E_dihed  =         0.0000 E_impro  =         0.0000 E_vdwl   =       775.0966 
E_coul   =     14678.1735 E_long   =    -19453.7590 Press    =       -16.7872 
Volume   =     10749.2049 
SHAKE stats (type/ave/delta) on step 970000
  2 1.00011 3.97654e-06
  2 109.47 0.000366541
---------------- Step   970000 ----- CPU =   2641.4551 (sec) ----------------
TotEng   =     -3359.2875 KinEng   =       655.5667 Temp     =       303.7694 
PotEng   =     -4014.8542 E_bond   =         0.7582 E_angle  =         0.3663 
E_dihed  =         0.0000 E_impro  =         0.0000 E_vdwl   =       744.1402 
E_coul   =     14694.3084 E_long   =    -19454.4274 Press    =      -991.8236 
Volume   =     10952.4304 
SHAKE stats (type/ave/delta) on step 980000
  2 1.00003 3.80743e-06
  2 109.47 0.000352839
---------------- Step   980000 ----- CPU =   2669.5486 (sec) ----------------
TotEng   =     -3364.9653 KinEng   =       653.6367 Temp     =       302.8751 
PotEng   =     -4018.6020 E_bond   =         2.6053 E_angle  =         0.6449 
E_dihed  =         0.0000 E_impro  =         0.0000 E_vdwl   =       784.4961 
E_coul   =     14650.2586 E_long   =    -19456.6070 Press    =       -76.3407 
Volume   =     10811.5439 
SHAKE stats (type/ave/delta) on step 990000
  2 1.00004 4.15308e-06
  2 109.47 0.000406075
---------------- Step   990000 ----- CPU =   2697.0938 (sec) ----------------
TotEng   =     -3358.0982 KinEng   =       647.8523 Temp     =       300.1948 
PotEng   =     -4005.9505 E_bond   =         1.4466 E_angle  =         1.1042 
E_dihed  =         0.0000 E_impro  =         0.0000 E_vdwl   =       776.7818 
E_coul   =     14669.2533 E_long   =    -19454.5363 Press    =       425.8452 
Volume   =     10723.0370 
SHAKE stats (type/ave/delta) on step 1000000
  2 0.999921 7.30562e-06
  2 109.47 0.000664876
---------------- Step  1000000 ----- CPU =   2725.2131 (sec) ----------------
TotEng   =     -3370.5308 KinEng   =       614.5163 Temp     =       284.7479 
PotEng   =     -3985.0470 E_bond   =         2.8437 E_angle  =         1.1833 
E_dihed  =         0.0000 E_impro  =         0.0000 E_vdwl   =       771.3013 
E_coul   =     14694.6626 E_long   =    -19455.0380 Press    =      -246.2694 
Volume   =     10805.3522 
SHAKE stats (type/ave/delta) on step 1010000
  2 1.00004 5.91215e-06
  2 109.47 0.000505197
---------------- Step  1010000 ----- CPU =   2751.2143 (sec) ----------------
TotEng   =     -3292.1616 KinEng   =       636.9037 Temp     =       295.1215 
PotEng   =     -3929.0653 E_bond   =         2.7940 E_angle  =         1.3049 
E_dihed  =         0.0000 E_impro  =         0.0000 E_vdwl   =       710.3724 
E_coul   =     14807.4816 E_long   =    -19451.0182 Press    =      -887.4379 
Volume   =     11119.7291 
SHAKE stats (type/ave/delta) on step 1020000
  2 1.00004 5.22427e-06
  2 109.47 0.000400715
---------------- Step  1020000 ----- CPU =   2777.1265 (sec) ----------------
TotEng   =     -3358.8544 KinEng   =       637.0944 Temp     =       295.2099 
PotEng   =     -3995.9488 E_bond   =         0.4525 E_angle  =         0.9793 
E_dihed  =         0.0000 E_impro  =         0.0000 E_vdwl   =       767.1385 
E_coul   =     14691.4939 E_long   =    -19456.0130 Press    =       -11.9315 
Volume   =     10902.4426 
SHAKE stats (type/ave/delta) on step 1030000
  2 0.999953 5.36849e-06
  2 109.47 0.000463154
---------------- Step  1030000 ----- CPU =   2803.6274 (sec) ----------------
TotEng   =     -3352.6055 KinEng   =       636.0469 Temp     =       294.7245 
PotEng   =     -3988.6524 E_bond   =         0.9547 E_angle  =         0.9415 
E_dihed  =         0.0000 E_impro  =         0.0000 E_vdwl   =       828.8020 
E_coul   =     14635.3828 E_long   =    -19454.7335 Press    =       749.7251 
Volume   =     11054.5681 
SHAKE stats (type/ave/delta) on step 1040000
  2 1.00004 6.84885e-06
  2 109.47 0.000573663
---------------- Step  1040000 ----- CPU =   2831.1194 (sec) ----------------
TotEng   =     -3297.2362 KinEng   =       683.2050 Temp     =       316.5761 
PotEng   =     -3980.4411 E_bond   =         2.0465 E_angle  =         0.8797 
E_dihed  =         0.0000 E_impro  =         0.0000 E_vdwl   =       792.0863 
E_coul   =     14676.3259 E_long   =    -19451.7794 Press    =       473.6644 
Volume   =     10887.9433 
SHAKE stats (type/ave/delta) on step 1050000
  2 0.999761 4.01608e-06
  2 109.47 0.000355994
---------------- Step  1050000 ----- CPU =   2859.2609 (sec) ----------------
TotEng   =     -3354.1726 KinEng   =       640.5708 Temp     =       296.8208 
PotEng   =     -3994.7434 E_bond   =         2.1458 E_angle  =         0.9315 
E_dihed  =         0.0000 E_impro  =         0.0000 E_vdwl   =       801.6238 
E_coul   =     14656.1990 E_long   =    -19455.6436 Press    =       931.0325 
Volume   =     10737.0071 
SHAKE stats (type/ave/delta) on step 1060000
  2 1.00011 1.00889e-05
  2 109.47 0.000999867
---------------- Step  1060000 ----- CPU =   2886.9052 (sec) ----------------
TotEng   =     -3329.5380 KinEng   =       644.9446 Temp     =       298.8475 
PotEng   =     -3974.4826 E_bond   =         1.0370 E_angle  =         0.9148 
E_dihed  =         0.0000 E_impro  =         0.0000 E_vdwl   =       764.7954 
E_coul   =     14711.8892 E_long   =    -19453.1190 Press    =      -210.9405 
Volume   =     10946.3003 
SHAKE stats (type/ave/delta) on step 1070000
  2 1.00003 8.38397e-06
  2 109.47 0.000892001
---------------- Step  1070000 ----- CPU =   2915.6987 (sec) ----------------
TotEng   =     -3299.5245 KinEng   =       668.8523 Temp     =       309.9255 
PotEng   =     -3968.3767 E_bond   =         0.7543 E_angle  =         0.9734 
E_dihed  =         0.0000 E_impro  =         0.0000 E_vdwl   =       799.9925 
E_coul   =     14683.3899 E_long   =    -19453.4868 Press    =       964.9607 
Volume   =     10808.0058 
SHAKE stats (type/ave/delta) on step 1080000
  2 0.999914 9.60908e-06
  2 109.47 0.000742639
---------------- Step  1080000 ----- CPU =   2943.4393 (sec) ----------------
TotEng   =     -3363.2894 KinEng   =       639.8326 Temp     =       296.4787 
PotEng   =     -4003.1219 E_bond   =         1.0397 E_angle  =         0.8809 
E_dihed  =         0.0000 E_impro  =         0.0000 E_vdwl   =       846.6002 
E_coul   =     14602.6495 E_long   =    -19454.2922 Press    =      1235.3586 
Volume   =     11110.8127 
SHAKE stats (type/ave/delta) on step 1090000
  2 1.00004 4.36393e-06
  2 109.47 0.000427998
---------------- Step  1090000 ----- CPU =   2971.1231 (sec) ----------------
TotEng   =     -3336.9474 KinEng   =       606.2560 Temp     =       280.9203 
PotEng   =     -3943.2033 E_bond   =         1.5989 E_angle  =         0.8335 
E_dihed  =         0.0000 E_impro  =         0.0000 E_vdwl   =       790.9134 
E_coul   =     14717.0409 E_long   =    -19453.5901 Press    =       612.8524 
Volume   =     10981.9348 
SHAKE stats (type/ave/delta) on step 1100000
  2 1 4.14029e-06
  2 109.47 0.000399551
---------------- Step  1100000 ----- CPU =   2999.2813 (sec) ----------------
TotEng   =     -3329.9731 KinEng   =       662.5062 Temp     =       306.9850 
PotEng   =     -3992.4793 E_bond   =         1.5232 E_angle  =         0.8582 
E_dihed  =         0.0000 E_impro  =         0.0000 E_vdwl   =       734.2051 
E_coul   =     14723.7628 E_long   =    -19452.8286 Press    =      -542.7117 
Volume   =     10903.1299 
SHAKE stats (type/ave/delta) on step 1110000
  2 0.999964 5.50779e-06
  2 109.47 0.000426288
---------------- Step  1110000 ----- CPU =   3026.8069 (sec) ----------------
TotEng   =     -3292.9268 KinEng   =       673.6991 Temp     =       312.1714 
PotEng   =     -3966.6259 E_bond   =         2.4232 E_angle  =         1.2032 
E_dihed  =         0.0000 E_impro  =         0.0000 E_vdwl   =       774.0372 
E_coul   =     14708.5211 E_long   =    -19452.8107 Press    =       384.0899 
Volume   =     11007.9344 
SHAKE stats (type/ave/delta) on step 1120000
  2 0.999929 4.6236e-06
  2 109.47 0.000508608
---------------- Step  1120000 ----- CPU =   3054.5618 (sec) ----------------
TotEng   =     -3379.3297 KinEng   =       657.6634 Temp     =       304.7410 
PotEng   =     -4036.9931 E_bond   =         2.1807 E_angle  =         1.5603 
E_dihed  =         0.0000 E_impro  =         0.0000 E_vdwl   =       751.6269 
E_coul   =     14661.7174 E_long   =    -19454.0783 Press    =      -726.5430 
Volume   =     10840.1005 
SHAKE stats (type/ave/delta) on step 1130000
  2 1.00003 1.39483e-05
  2 109.47 0.00208835
---------------- Step  1130000 ----- CPU =   3081.1274 (sec) ----------------
TotEng   =     -3334.2796 KinEng   =       655.3111 Temp     =       303.6509 
PotEng   =     -3989.5907 E_bond   =         2.8555 E_angle  =         1.1957 
E_dihed  =         0.0000 E_impro  =         0.0000 E_vdwl   =       776.0464 
E_coul   =     14682.1741 E_long   =    -19451.8624 Press    =      -228.1368 
Volume   =     11122.1961 
SHAKE stats (type/ave/delta) on step 1140000
  2 0.999979 3.73368e-06
  2 109.47 0.000383514
---------------- Step  1140000 ----- CPU =   3107.1641 (sec) ----------------
TotEng   =     -3322.5822 KinEng   =       626.3464 Temp     =       290.2296 
PotEng   =     -3948.9286 E_bond   =         2.2236 E_angle  =         0.8112 
E_dihed  =         0.0000 E_impro  =         0.0000 E_vdwl   =       784.9470 
E_coul   =     14716.6707 E_long   =    -19453.5811 Press    =       531.7072 
Volume   =     11008.0129 
SHAKE stats (type/ave/delta) on step 1150000
  2 0.99999 1.09486e-05
  2 109.47 0.000949537
---------------- Step  1150000 ----- CPU =   3132.9765 (sec) ----------------
TotEng   =     -3282.4600 KinEng   =       660.3100 Temp     =       305.9673 
PotEng   =     -3942.7701 E_bond   =         2.2232 E_angle  =         1.3134 
E_dihed  =         0.0000 E_impro  =         0.0000 E_vdwl   =       809.2616 
E_coul   =     14700.5707 E_long   =    -19456.1389 Press    =      1078.4074 
Volume   =     10838.0398 
SHAKE stats (type/ave/delta) on step 1160000
  2 1 6.75585e-06
  2 109.47 0.00065416
---------------- Step  1160000 ----- CPU =   3161.3997 (sec) ----------------
TotEng   =     -3386.7382 KinEng   =       630.3330 Temp     =       292.0769 
PotEng   =     -4017.0712 E_bond   =         3.2570 E_angle  =         1.1732 
E_dihed  =         0.0000 E_impro  =         0.0000 E_vdwl   =       772.8301 
E_coul   =     14658.9526 E_long   =    -19453.2842 Press    =      -181.3207 
Volume   =     10791.1801 
SHAKE stats (type/ave/delta) on step 1170000
  2 1.00003 4.02651e-06
  2 109.47 0.000396356
---------------- Step  1170000 ----- CPU =   3189.0130 (sec) ----------------
TotEng   =     -3317.6694 KinEng   =       643.2974 Temp     =       298.0842 
PotEng   =     -3960.9667 E_bond   =         2.7381 E_angle  =         1.6169 
E_dihed  =         0.0000 E_impro  =         0.0000 E_vdwl   =       806.3701 
E_coul   =     14679.3988 E_long   =    -19451.0907 Press    =       534.8317 
Volume   =     11266.0499 
SHAKE stats (type/ave/delta) on step 1180000
  2 1.00012 1.06575e-05
  2 109.47 0.000801093
---------------- Step  1180000 ----- CPU =   3215.6071 (sec) ----------------
TotEng   =     -3383.0050 KinEng   =       650.4116 Temp     =       301.3807 
PotEng   =     -4033.4166 E_bond   =         0.2180 E_angle  =         1.4202 
E_dihed  =         0.0000 E_impro  =         0.0000 E_vdwl   =       772.0469 
E_coul   =     14645.8574 E_long   =    -19452.9591 Press    =      -249.1258 
Volume   =     10754.3258 
SHAKE stats (type/ave/delta) on step 1190000
  2 0.999987 4.23491e-06
  2 109.47 0.000364421
---------------- Step  1190000 ----- CPU =   3242.5918 (sec) ----------------
TotEng   =     -3321.2334 KinEng   =       646.4368 Temp     =       299.5389 
PotEng   =     -3967.6701 E_bond   =         1.1385 E_angle  =         1.6048 
E_dihed  =         0.0000 E_impro  =         0.0000 E_vdwl   =       750.9931 
E_coul   =     14733.6472 E_long   =    -19455.0538 Press    =      -325.9224 
Volume   =     10988.7829 
SHAKE stats (type/ave/delta) on step 1200000
  2 1.00005 4.32627e-06
  2 109.47 0.000381911
---------------- Step  1200000 ----- CPU =   3270.8763 (sec) ----------------
TotEng   =     -3337.5937 KinEng   =       668.5997 Temp     =       309.8085 
PotEng   =     -4006.1934 E_bond   =         1.3076 E_angle  =         1.3309 
E_dihed  =         0.0000 E_impro  =         0.0000 E_vdwl   =       786.8077 
E_coul   =     14655.2671 E_long   =    -19450.9067 Press    =       421.1058 
Volume   =     10942.1604 
SHAKE stats (type/ave/delta) on step 1210000
  2 0.999953 9.46241e-06
  2 109.47 0.000868913
---------------- Step  1210000 ----- CPU =   3298.3343 (sec) ----------------
TotEng   =     -3368.0529 KinEng   =       629.2658 Temp     =       291.5824 
PotEng   =     -3997.3187 E_bond   =         1.4941 E_angle  =         2.3686 
E_dihed  =         0.0000 E_impro  =         0.0000 E_vdwl   =       744.2077 
E_coul   =     14710.3322 E_long   =    -19455.7211 Press    =      -959.4558 
Volume   =     10989.0553 
SHAKE stats (type/ave/delta) on step 1220000
  2 0.999921 4.55194e-06
  2 109.47 0.000411426
---------------- Step  1220000 ----- CPU =   3326.6322 (sec) ----------------
TotEng   =     -3347.6305 KinEng   =       634.4061 Temp     =       293.9642 
PotEng   =     -3982.0366 E_bond   =         2.0290 E_angle  =         1.8935 
E_dihed  =         0.0000 E_impro  =         0.0000 E_vdwl   =       790.1081 
E_coul   =     14679.5721 E_long   =    -19455.6393 Press    =       198.4130 
Volume   =     11001.1276 
SHAKE stats (type/ave/delta) on step 1230000
  2 1.00003 1.02661e-05
  2 109.47 0.000887149
---------------- Step  1230000 ----- CPU =   3354.0973 (sec) ----------------
TotEng   =     -3327.6385 KinEng   =       698.0496 Temp     =       323.4547 
PotEng   =     -4025.6881 E_bond   =         1.5919 E_angle  =         1.1460 
E_dihed  =         0.0000 E_impro  =         0.0000 E_vdwl   =       782.2872 
E_coul   =     14643.1852 E_long   =    -19453.8983 Press    =        61.6961 
Volume   =     10881.2576 
SHAKE stats (type/ave/delta) on step 1240000
  2 0.99997 7.81355e-06
  2 109.47 0.000821899
---------------- Step  1240000 ----- CPU =   3381.6316 (sec) ----------------
TotEng   =     -3319.4940 KinEng   =       649.8775 Temp     =       301.1332 
PotEng   =     -3969.3716 E_bond   =         1.0651 E_angle  =         1.3183 
E_dihed  =         0.0000 E_impro  =         0.0000 E_vdwl   =       725.6675 
E_coul   =     14755.8265 E_long   =    -19453.2489 Press    =      -476.0418 
Volume   =     10725.8873 
SHAKE stats (type/ave/delta) on step 1250000
  2 0.999921 8.91848e-06
  2 109.47 0.000816516
---------------- Step  1250000 ----- CPU =   3409.2429 (sec) ----------------
TotEng   =     -3374.1292 KinEng   =       620.5606 Temp     =       287.5486 
PotEng   =     -3994.6897 E_bond   =         1.7405 E_angle  =         1.3830 
E_dihed  =         0.0000 E_impro  =         0.0000 E_vdwl   =       690.8740 
E_coul   =     14763.9723 E_long   =    -19452.6596 Press    =     -1622.3370 
Volume   =     11015.1535 
SHAKE stats (type/ave/delta) on step 1260000
  2 1 4.80821e-06
  2 109.47 0.00063748
---------------- Step  1260000 ----- CPU =   3436.1877 (sec) ----------------
TotEng   =     -3378.5033 KinEng   =       630.3519 Temp     =       292.0856 
PotEng   =     -4008.8552 E_bond   =         0.4786 E_angle  =         1.2767 
E_dihed  =         0.0000 E_impro  =         0.0000 E_vdwl   =       850.1083 
E_coul   =     14593.6730 E_long   =    -19454.3919 Press    =      1464.4397 
Volume   =     10814.6567 
SHAKE stats (type/ave/delta) on step 1270000
  2 1 1.32835e-05
  2 109.47 0.000826835
---------------- Step  1270000 ----- CPU =   3463.2946 (sec) ----------------
TotEng   =     -3362.7652 KinEng   =       623.2262 Temp     =       288.7838 
PotEng   =     -3985.9914 E_bond   =         1.9755 E_angle  =         1.5742 
E_dihed  =         0.0000 E_impro  =         0.0000 E_vdwl   =       821.5286 
E_coul   =     14644.0247 E_long   =    -19455.0943 Press    =      1129.0673 
Volume   =     10813.8232 
SHAKE stats (type/ave/delta) on step 1280000
  2 1.00001 5.08474e-06
  2 109.47 0.000473101
---------------- Step  1280000 ----- CPU =   3489.9651 (sec) ----------------
TotEng   =     -3349.9128 KinEng   =       647.4818 Temp     =       300.0231 
PotEng   =     -3997.3946 E_bond   =         0.3627 E_angle  =         1.0671 
E_dihed  =         0.0000 E_impro  =         0.0000 E_vdwl   =       770.7961 
E_coul   =     14683.1336 E_long   =    -19452.7540 Press    =       171.7173 
Volume   =     10729.2649 
SHAKE stats (type/ave/delta) on step 1290000
  2 1 4.01227e-06
  2 109.47 0.000359519
---------------- Step  1290000 ----- CPU =   3518.2327 (sec) ----------------
TotEng   =     -3336.3098 KinEng   =       647.2764 Temp     =       299.9279 
PotEng   =     -3983.5861 E_bond   =         1.0571 E_angle  =         1.0800 
E_dihed  =         0.0000 E_impro  =         0.0000 E_vdwl   =       755.0148 
E_coul   =     14713.1531 E_long   =    -19453.8912 Press    =      -370.2970 
Volume   =     10872.1732 
SHAKE stats (type/ave/delta) on step 1300000
  2 0.999973 4.58033e-06
  2 109.47 0.000455196
---------------- Step  1300000 ----- CPU =   3546.7923 (sec) ----------------
TotEng   =     -3352.7443 KinEng   =       645.1671 Temp     =       298.9506 
PotEng   =     -3997.9115 E_bond   =         1.6866 E_angle  =         1.6177 
E_dihed  =         0.0000 E_impro  =         0.0000 E_vdwl   =       768.7544 
E_coul   =     14682.7838 E_long   =    -19452.7540 Press    =        56.7946 
Volume   =     10783.1788 
SHAKE stats (type/ave/delta) on step 1310000
  2 0.999988 5.33006e-06
  2 109.47 0.000400801
---------------- Step  1310000 ----- CPU =   3574.6650 (sec) ----------------
TotEng   =     -3331.7397 KinEng   =       672.9739 Temp     =       311.8354 
PotEng   =     -4004.7137 E_bond   =         2.1632 E_angle  =         1.0380 
E_dihed  =         0.0000 E_impro  =         0.0000 E_vdwl   =       725.0782 
E_coul   =     14721.5552 E_long   =    -19454.5483 Press    =     -1011.9092 
Volume   =     10898.1738 
SHAKE stats (type/ave/delta) on step 1320000
  2 1.00004 9.63373e-06
  2 109.47 0.000903792
---------------- Step  1320000 ----- CPU =   3601.8352 (sec) ----------------
TotEng   =     -3420.5190 KinEng   =       656.6011 Temp     =       304.2487 
PotEng   =     -4077.1202 E_bond   =         1.5508 E_angle  =         1.5070 
E_dihed  =         0.0000 E_impro  =         0.0000 E_vdwl   =       815.9895 
E_coul   =     14558.7613 E_long   =    -19454.9288 Press    =       577.5373 
Volume   =     10773.9272 
SHAKE stats (type/ave/delta) on step 1330000
  2 0.999952 3.96784e-06
  2 109.47 0.000415759
---------------- Step  1330000 ----- CPU =   3630.0215 (sec) ----------------
TotEng   =     -3360.3476 KinEng   =       610.2679 Temp     =       282.7793 
PotEng   =     -3970.6154 E_bond   =         1.6526 E_angle  =         1.8969 
E_dihed  =         0.0000 E_impro  =         0.0000 E_vdwl   =       752.0466 
E_coul   =     14729.0989 E_long   =    -19455.3103 Press    =      -173.2566 
Volume   =     10824.0566 
SHAKE stats (type/ave/delta) on step 1340000
  2 0.999948 3.41717e-06
  2 109.47 0.000378958
---------------- Step  1340000 ----- CPU =   3658.7508 (sec) ----------------
TotEng   =     -3356.3631 KinEng   =       636.4585 Temp     =       294.9152 
[...]
E_dihed  =         0.0000 E_impro  =         0.0000 E_vdwl   =       742.6748 
E_coul   =     14751.1273 E_long   =    -19452.0004 Press    =      -574.5907 
Volume   =     11001.6988 
SHAKE stats (type/ave/delta) on step 4650000
  2 0.999997 4.2358e-06
  2 109.47 0.000428116
---------------- Step  4650000 ----- CPU =  12684.0438 (sec) ----------------
TotEng   =     -3335.5716 KinEng   =       646.8219 Temp     =       299.7173 
PotEng   =     -3982.3934 E_bond   =         2.1282 E_angle  =         1.6666 
E_dihed  =         0.0000 E_impro  =         0.0000 E_vdwl   =       729.7634 
E_coul   =     14740.4874 E_long   =    -19456.4390 Press    =      -972.8196 
Volume   =     11150.0075 
SHAKE stats (type/ave/delta) on step 4660000
  2 0.999906 1.03128e-05
  2 109.47 0.000912551
---------------- Step  4660000 ----- CPU =  12712.0490 (sec) ----------------
TotEng   =     -3355.2366 KinEng   =       662.8659 Temp     =       307.1516 
PotEng   =     -4018.1025 E_bond   =         1.4444 E_angle  =         0.8503 
E_dihed  =         0.0000 E_impro  =         0.0000 E_vdwl   =       759.6053 
E_coul   =     14673.6569 E_long   =    -19453.6593 Press    =      -204.1791 
Volume   =     10908.7621 
SHAKE stats (type/ave/delta) on step 4670000
  2 1.00008 4.74281e-06
  2 109.47 0.000445793
---------------- Step  4670000 ----- CPU =  12739.7366 (sec) ----------------
TotEng   =     -3343.1453 KinEng   =       662.1077 Temp     =       306.8003 
PotEng   =     -4005.2531 E_bond   =         4.1169 E_angle  =         1.3991 
E_dihed  =         0.0000 E_impro  =         0.0000 E_vdwl   =       812.3669 
E_coul   =     14630.8073 E_long   =    -19453.9432 Press    =       484.4846 
Volume   =     10982.2584 
SHAKE stats (type/ave/delta) on step 4680000
  2 1.00009 4.10809e-06
  2 109.47 0.000519717
---------------- Step  4680000 ----- CPU =  12767.2537 (sec) ----------------
TotEng   =     -3373.1740 KinEng   =       634.4486 Temp     =       293.9839 
PotEng   =     -4007.6226 E_bond   =         1.9823 E_angle  =         2.5218 
E_dihed  =         0.0000 E_impro  =         0.0000 E_vdwl   =       724.6232 
E_coul   =     14716.9508 E_long   =    -19453.7006 Press    =     -1656.9568 
Volume   =     11350.4906 
SHAKE stats (type/ave/delta) on step 4690000
  2 1.00015 1.95473e-05
  2 109.47 0.00145877
---------------- Step  4690000 ----- CPU =  12794.7700 (sec) ----------------
TotEng   =     -3367.6520 KinEng   =       632.7947 Temp     =       293.2175 
PotEng   =     -4000.4467 E_bond   =         0.2593 E_angle  =         4.4161 
E_dihed  =         0.0000 E_impro  =         0.0000 E_vdwl   =       761.8207 
E_coul   =     14687.3457 E_long   =    -19454.2885 Press    =        24.9709 
Volume   =     10724.8585 
SHAKE stats (type/ave/delta) on step 4700000
  2 1.00015 6.64963e-06
  2 109.47 0.000579747
---------------- Step  4700000 ----- CPU =  12822.6124 (sec) ----------------
TotEng   =     -3412.2087 KinEng   =       624.0793 Temp     =       289.1791 
PotEng   =     -4036.2880 E_bond   =         1.3406 E_angle  =         1.8036 
E_dihed  =         0.0000 E_impro  =         0.0000 E_vdwl   =       781.4089 
E_coul   =     14634.2528 E_long   =    -19455.0939 Press    =        87.9784 
Volume   =     10687.8340 
SHAKE stats (type/ave/delta) on step 4710000
  2 1.00001 8.88456e-06
  2 109.47 0.000933085
---------------- Step  4710000 ----- CPU =  12850.9099 (sec) ----------------
TotEng   =     -3300.7716 KinEng   =       659.2176 Temp     =       305.4611 
PotEng   =     -3959.9892 E_bond   =         1.7328 E_angle  =         2.6349 
E_dihed  =         0.0000 E_impro  =         0.0000 E_vdwl   =       728.8745 
E_coul   =     14761.0106 E_long   =    -19454.2420 Press    =      -633.4587 
Volume   =     10875.2740 
SHAKE stats (type/ave/delta) on step 4720000
  2 1.00001 7.10914e-06
  2 109.47 0.000602765
---------------- Step  4720000 ----- CPU =  12878.0801 (sec) ----------------
TotEng   =     -3375.2860 KinEng   =       625.8815 Temp     =       290.0142 
PotEng   =     -4001.1676 E_bond   =         0.7577 E_angle  =         0.9153 
E_dihed  =         0.0000 E_impro  =         0.0000 E_vdwl   =       785.6361 
E_coul   =     14666.0360 E_long   =    -19454.5127 Press    =        87.6559 
Volume   =     11069.6517 
SHAKE stats (type/ave/delta) on step 4730000
  2 1.00018 7.31279e-06
  2 109.47 0.000730323
---------------- Step  4730000 ----- CPU =  12904.9716 (sec) ----------------
TotEng   =     -3400.7003 KinEng   =       629.1720 Temp     =       291.5389 
PotEng   =     -4029.8722 E_bond   =         1.0188 E_angle  =         1.9730 
E_dihed  =         0.0000 E_impro  =         0.0000 E_vdwl   =       806.5679 
E_coul   =     14616.2261 E_long   =    -19455.6580 Press    =       637.2111 
Volume   =     10878.2377 
SHAKE stats (type/ave/delta) on step 4740000
  2 1.00011 5.85354e-06
  2 109.47 0.0004738
---------------- Step  4740000 ----- CPU =  12933.0395 (sec) ----------------
TotEng   =     -3356.4794 KinEng   =       646.9556 Temp     =       299.7793 
PotEng   =     -4003.4350 E_bond   =         1.9386 E_angle  =         0.4698 
E_dihed  =         0.0000 E_impro  =         0.0000 E_vdwl   =       735.5834 
E_coul   =     14712.6850 E_long   =    -19454.1119 Press    =     -1505.2535 
Volume   =     11489.3774 
SHAKE stats (type/ave/delta) on step 4750000
  2 1.00004 7.1848e-06
  2 109.47 0.000488541
---------------- Step  4750000 ----- CPU =  12960.3304 (sec) ----------------
TotEng   =     -3421.3340 KinEng   =       644.2213 Temp     =       298.5123 
PotEng   =     -4065.5552 E_bond   =         0.4594 E_angle  =         1.0790 
E_dihed  =         0.0000 E_impro  =         0.0000 E_vdwl   =       801.9526 
E_coul   =     14584.9127 E_long   =    -19453.9588 Press    =        21.9987 
Volume   =     10906.2413 
SHAKE stats (type/ave/delta) on step 4760000
  2 1 4.97192e-06
  2 109.47 0.000531644
---------------- Step  4760000 ----- CPU =  12986.8583 (sec) ----------------
TotEng   =     -3303.7604 KinEng   =       667.9341 Temp     =       309.5001 
PotEng   =     -3971.6945 E_bond   =         0.5942 E_angle  =         0.7991 
E_dihed  =         0.0000 E_impro  =         0.0000 E_vdwl   =       741.4602 
E_coul   =     14737.0099 E_long   =    -19451.5579 Press    =      -426.4721 
Volume   =     10991.6617 
SHAKE stats (type/ave/delta) on step 4770000
  2 1.00006 4.38213e-06
  2 109.47 0.000377172
---------------- Step  4770000 ----- CPU =  13013.5915 (sec) ----------------
TotEng   =     -3364.5298 KinEng   =       660.3547 Temp     =       305.9880 
PotEng   =     -4024.8845 E_bond   =         1.0163 E_angle  =         1.5813 
E_dihed  =         0.0000 E_impro  =         0.0000 E_vdwl   =       825.3124 
E_coul   =     14601.2117 E_long   =    -19454.0062 Press    =      1736.0613 
Volume   =     10579.3870 
SHAKE stats (type/ave/delta) on step 4780000
  2 0.999874 5.52055e-06
  2 109.47 0.000618427
---------------- Step  4780000 ----- CPU =  13041.2803 (sec) ----------------
TotEng   =     -3373.4617 KinEng   =       650.0556 Temp     =       301.2157 
PotEng   =     -4023.5173 E_bond   =         0.1987 E_angle  =         1.2513 
E_dihed  =         0.0000 E_impro  =         0.0000 E_vdwl   =       833.6858 
E_coul   =     14597.3067 E_long   =    -19455.9597 Press    =      1423.0047 
Volume   =     10704.2220 
SHAKE stats (type/ave/delta) on step 4790000
  2 1.00015 4.95694e-06
  2 109.47 0.000456688
---------------- Step  4790000 ----- CPU =  13068.8245 (sec) ----------------
TotEng   =     -3363.2936 KinEng   =       653.5517 Temp     =       302.8357 
PotEng   =     -4016.8453 E_bond   =         0.4052 E_angle  =         1.7785 
E_dihed  =         0.0000 E_impro  =         0.0000 E_vdwl   =       732.6594 
E_coul   =     14701.1553 E_long   =    -19452.8438 Press    =      -807.6829 
Volume   =     10902.9362 
SHAKE stats (type/ave/delta) on step 4800000
  2 0.999933 3.88525e-06
  2 109.47 0.000365979
---------------- Step  4800000 ----- CPU =  13096.7588 (sec) ----------------
TotEng   =     -3291.5259 KinEng   =       664.2085 Temp     =       307.7737 
PotEng   =     -3955.7344 E_bond   =         0.8485 E_angle  =         1.8282 
E_dihed  =         0.0000 E_impro  =         0.0000 E_vdwl   =       749.7529 
E_coul   =     14745.4094 E_long   =    -19453.5734 Press    =       -89.6445 
Volume   =     10921.4248 
SHAKE stats (type/ave/delta) on step 4810000
  2 0.99995 7.37426e-06
  2 109.47 0.000703058
---------------- Step  4810000 ----- CPU =  13124.3487 (sec) ----------------
TotEng   =     -3352.7737 KinEng   =       640.3337 Temp     =       296.7109 
PotEng   =     -3993.1075 E_bond   =         0.1460 E_angle  =         2.6489 
E_dihed  =         0.0000 E_impro  =         0.0000 E_vdwl   =       718.0572 
E_coul   =     14739.8041 E_long   =    -19453.7637 Press    =      -965.9626 
Volume   =     10883.5070 
SHAKE stats (type/ave/delta) on step 4820000
  2 1.00006 7.12026e-06
  2 109.47 0.000536703
---------------- Step  4820000 ----- CPU =  13152.0244 (sec) ----------------
TotEng   =     -3391.9617 KinEng   =       620.5489 Temp     =       287.5432 
PotEng   =     -4012.5106 E_bond   =         1.0008 E_angle  =         2.1826 
E_dihed  =         0.0000 E_impro  =         0.0000 E_vdwl   =       819.1204 
E_coul   =     14622.3911 E_long   =    -19457.2055 Press    =       902.4179 
Volume   =     10907.9194 
SHAKE stats (type/ave/delta) on step 4830000
  2 1.00006 5.81271e-06
  2 109.47 0.000592053
---------------- Step  4830000 ----- CPU =  13180.0659 (sec) ----------------
TotEng   =     -3345.2960 KinEng   =       631.8895 Temp     =       292.7981 
PotEng   =     -3977.1854 E_bond   =         2.7505 E_angle  =         1.4601 
E_dihed  =         0.0000 E_impro  =         0.0000 E_vdwl   =       764.0813 
E_coul   =     14707.4997 E_long   =    -19452.9770 Press    =       -83.0065 
Volume   =     11073.5062 
SHAKE stats (type/ave/delta) on step 4840000
  2 0.999969 4.25681e-06
  2 109.47 0.000373963
---------------- Step  4840000 ----- CPU =  13208.1861 (sec) ----------------
TotEng   =     -3351.0631 KinEng   =       588.3628 Temp     =       272.6292 
PotEng   =     -3939.4259 E_bond   =         0.9819 E_angle  =         0.5687 
E_dihed  =         0.0000 E_impro  =         0.0000 E_vdwl   =       749.8935 
E_coul   =     14762.9746 E_long   =    -19453.8446 Press    =       268.4294 
Volume   =     10817.0363 
SHAKE stats (type/ave/delta) on step 4850000
  2 0.999895 5.78148e-06
  2 109.47 0.000547262
---------------- Step  4850000 ----- CPU =  13236.8141 (sec) ----------------
TotEng   =     -3391.1433 KinEng   =       606.0778 Temp     =       280.8378 
PotEng   =     -3997.2211 E_bond   =         1.1589 E_angle  =         1.2509 
E_dihed  =         0.0000 E_impro  =         0.0000 E_vdwl   =       734.9483 
E_coul   =     14721.6317 E_long   =    -19456.2109 Press    =      -508.9240 
Volume   =     10875.2377 
SHAKE stats (type/ave/delta) on step 4860000
  2 1.00001 6.78982e-06
  2 109.47 0.000579811
---------------- Step  4860000 ----- CPU =  13264.9175 (sec) ----------------
TotEng   =     -3313.9820 KinEng   =       658.3618 Temp     =       305.0646 
PotEng   =     -3972.3437 E_bond   =         1.2449 E_angle  =         0.5212 
E_dihed  =         0.0000 E_impro  =         0.0000 E_vdwl   =       731.0717 
E_coul   =     14750.0033 E_long   =    -19455.1848 Press    =      -745.2620 
Volume   =     11007.4933 
SHAKE stats (type/ave/delta) on step 4870000
  2 1.00017 1.02314e-05
  2 109.47 0.000783597
---------------- Step  4870000 ----- CPU =  13293.0023 (sec) ----------------
TotEng   =     -3371.3351 KinEng   =       591.6129 Temp     =       274.1352 
PotEng   =     -3962.9479 E_bond   =         1.8458 E_angle  =         0.8566 
E_dihed  =         0.0000 E_impro  =         0.0000 E_vdwl   =       717.2012 
E_coul   =     14771.3049 E_long   =    -19454.1565 Press    =      -617.1379 
Volume   =     10883.3872 
SHAKE stats (type/ave/delta) on step 4880000
  2 1.00012 5.77446e-06
  2 109.47 0.000415205
---------------- Step  4880000 ----- CPU =  13320.4325 (sec) ----------------
TotEng   =     -3373.6136 KinEng   =       662.3454 Temp     =       306.9104 
PotEng   =     -4035.9591 E_bond   =         1.0907 E_angle  =         0.7379 
E_dihed  =         0.0000 E_impro  =         0.0000 E_vdwl   =       777.0092 
E_coul   =     14637.6724 E_long   =    -19452.4693 Press    =       -60.2158 
Volume   =     10848.5259 
SHAKE stats (type/ave/delta) on step 4890000
  2 0.999973 9.24555e-06
  2 109.47 0.000872235
---------------- Step  4890000 ----- CPU =  13346.7295 (sec) ----------------
TotEng   =     -3383.9470 KinEng   =       643.7582 Temp     =       298.2977 
PotEng   =     -4027.7052 E_bond   =         0.6197 E_angle  =         0.9837 
E_dihed  =         0.0000 E_impro  =         0.0000 E_vdwl   =       816.9385 
E_coul   =     14608.7913 E_long   =    -19455.0384 Press    =       700.0576 
Volume   =     10876.8432 
SHAKE stats (type/ave/delta) on step 4900000
  2 0.999915 4.87356e-06
  2 109.47 0.000533025
---------------- Step  4900000 ----- CPU =  13373.0393 (sec) ----------------
TotEng   =     -3333.9330 KinEng   =       638.7463 Temp     =       295.9754 
PotEng   =     -3972.6794 E_bond   =         0.1811 E_angle  =         0.6704 
E_dihed  =         0.0000 E_impro  =         0.0000 E_vdwl   =       736.3001 
E_coul   =     14743.3025 E_long   =    -19453.1333 Press    =      -229.1710 
Volume   =     10839.9497 
SHAKE stats (type/ave/delta) on step 4910000
  2 0.999978 4.72391e-06
  2 109.47 0.000451027
---------------- Step  4910000 ----- CPU =  13401.6050 (sec) ----------------
TotEng   =     -3374.4556 KinEng   =       632.6452 Temp     =       293.1483 
PotEng   =     -4007.1008 E_bond   =         0.7662 E_angle  =         0.4951 
E_dihed  =         0.0000 E_impro  =         0.0000 E_vdwl   =       785.3207 
E_coul   =     14659.4497 E_long   =    -19453.1325 Press    =       128.4677 
Volume   =     10963.2835 
SHAKE stats (type/ave/delta) on step 4920000
  2 1.00014 3.95809e-06
  2 109.47 0.00038929
---------------- Step  4920000 ----- CPU =  13428.8609 (sec) ----------------
TotEng   =     -3351.7495 KinEng   =       632.4926 Temp     =       293.0776 
PotEng   =     -3984.2422 E_bond   =         0.5945 E_angle  =         0.4196 
E_dihed  =         0.0000 E_impro  =         0.0000 E_vdwl   =       802.3853 
E_coul   =     14666.3968 E_long   =    -19454.0383 Press    =       874.0170 
Volume   =     10846.6774 
SHAKE stats (type/ave/delta) on step 4930000
  2 0.999913 4.37848e-06
  2 109.47 0.000398444
---------------- Step  4930000 ----- CPU =  13456.9868 (sec) ----------------
TotEng   =     -3428.4605 KinEng   =       630.7059 Temp     =       292.2497 
PotEng   =     -4059.1663 E_bond   =         1.4922 E_angle  =         1.1391 
E_dihed  =         0.0000 E_impro  =         0.0000 E_vdwl   =       762.9692 
E_coul   =     14627.6610 E_long   =    -19452.4278 Press    =      -477.0288 
Volume   =     10843.7686 
SHAKE stats (type/ave/delta) on step 4940000
  2 1.00001 7.63631e-06
  2 109.47 0.000819905
---------------- Step  4940000 ----- CPU =  13484.7291 (sec) ----------------
TotEng   =     -3370.2061 KinEng   =       634.8727 Temp     =       294.1804 
PotEng   =     -4005.0787 E_bond   =         0.8619 E_angle  =         0.8529 
E_dihed  =         0.0000 E_impro  =         0.0000 E_vdwl   =       740.1945 
E_coul   =     14706.2205 E_long   =    -19453.2084 Press    =      -675.0204 
Volume   =     11057.8598 
SHAKE stats (type/ave/delta) on step 4950000
  2 1.00004 1.14709e-05
  2 109.47 0.00138361
---------------- Step  4950000 ----- CPU =  13512.0457 (sec) ----------------
TotEng   =     -3409.0243 KinEng   =       616.4118 Temp     =       285.6262 
PotEng   =     -4025.4361 E_bond   =         1.0044 E_angle  =         1.9544 
E_dihed  =         0.0000 E_impro  =         0.0000 E_vdwl   =       745.9941 
E_coul   =     14676.5959 E_long   =    -19450.9849 Press    =      -641.3892 
Volume   =     10831.9342 
SHAKE stats (type/ave/delta) on step 4960000
  2 0.999861 1.1219e-05
  2 109.47 0.00109278
---------------- Step  4960000 ----- CPU =  13539.6911 (sec) ----------------
TotEng   =     -3344.2928 KinEng   =       621.6388 Temp     =       288.0483 
PotEng   =     -3965.9317 E_bond   =         0.0564 E_angle  =         2.8098 
E_dihed  =         0.0000 E_impro  =         0.0000 E_vdwl   =       831.6491 
E_coul   =     14654.3387 E_long   =    -19454.7858 Press    =      1165.0185 
Volume   =     11065.8552 
SHAKE stats (type/ave/delta) on step 4970000
  2 1.00013 6.95767e-06
  2 109.47 0.000670848
---------------- Step  4970000 ----- CPU =  13567.3439 (sec) ----------------
TotEng   =     -3349.0726 KinEng   =       633.9587 Temp     =       293.7569 
PotEng   =     -3983.0313 E_bond   =         0.2022 E_angle  =         3.7984 
E_dihed  =         0.0000 E_impro  =         0.0000 E_vdwl   =       771.0082 
E_coul   =     14695.0451 E_long   =    -19453.0851 Press    =       322.3105 
Volume   =     10875.3510 
SHAKE stats (type/ave/delta) on step 4980000
  2 0.999998 7.10439e-06
  2 109.47 0.00069529
---------------- Step  4980000 ----- CPU =  13594.7976 (sec) ----------------
TotEng   =     -3363.8944 KinEng   =       638.8067 Temp     =       296.0033 
PotEng   =     -4002.7011 E_bond   =         0.4964 E_angle  =         1.0289 
E_dihed  =         0.0000 E_impro  =         0.0000 E_vdwl   =       751.8841 
E_coul   =     14696.2677 E_long   =    -19452.3782 Press    =      -720.6081 
Volume   =     11123.1956 
SHAKE stats (type/ave/delta) on step 4990000
  2 1.0001 4.78335e-06
  2 109.47 0.00039454
---------------- Step  4990000 ----- CPU =  13622.8461 (sec) ----------------
TotEng   =     -3376.5138 KinEng   =       652.7001 Temp     =       302.4411 
PotEng   =     -4029.2138 E_bond   =         0.4779 E_angle  =         0.8671 
E_dihed  =         0.0000 E_impro  =         0.0000 E_vdwl   =       780.2098 
E_coul   =     14642.1531 E_long   =    -19452.9218 Press    =        -3.3639 
Volume   =     10998.6521 
SHAKE stats (type/ave/delta) on step 5000000
  2 0.999935 7.18159e-06
  2 109.47 0.000444828
---------------- Step  5000000 ----- CPU =  13651.0499 (sec) ----------------
TotEng   =     -3360.1744 KinEng   =       650.8977 Temp     =       301.6059 
PotEng   =     -4011.0721 E_bond   =         0.8380 E_angle  =         1.1635 
E_dihed  =         0.0000 E_impro  =         0.0000 E_vdwl   =       799.7435 
E_coul   =     14638.5036 E_long   =    -19451.3207 Press    =       322.5398 
Volume   =     11010.4329 
Loop time of 13651 on 8 procs for 5000000 steps with 1085 atoms

Pair  time (%) = 7197.95 (52.7282)
Bond  time (%) = 3.14328 (0.0230259)
Kspce time (%) = 2487.75 (18.2239)
Neigh time (%) = 967.217 (7.0853)
Comm  time (%) = 1275.82 (9.34595)
Outpt time (%) = 0.22255 (0.00163027)
Other time (%) = 1718.94 (12.592)

FFT time (% of Kspce) = 331.506 (13.3256)
FFT Gflps 3d (1d only) = 3.88583 52.7568

Nlocal:    135.625 ave 152 max 122 min
Histogram: 1 1 1 1 0 1 1 0 1 1
Nghost:    4180 ave 4213 max 4161 min
Histogram: 3 1 0 0 1 1 0 1 0 1
Neighs:    48256.1 ave 53668 max 43707 min
Histogram: 1 1 1 2 0 0 0 2 0 1

Total # of neighbors = 386049
Ave neighs/atom = 355.806
Ave special neighs/atom = 2.00922
Neighbor list builds = 412542
Dangerous builds = 66165

write_restart restart.*.lmp
PPPM initialization ...
  G vector (1/distance) = 0.267395
  grid = 12 12 12
  stencil order = 5
  estimated absolute RMS force accuracy = 0.0261948
  estimated relative force accuracy = 7.88848e-05
  using double precision FFTs
  3d grid and FFT values/proc = 2197 288
write_data data.*.lmp
PPPM initialization ...
  G vector (1/distance) = 0.267395
  grid = 12 12 12
  stencil order = 5
  estimated absolute RMS force accuracy = 0.0261948
  estimated relative force accuracy = 7.88848e-05
  using double precision FFTs
  3d grid and FFT values/proc = 2197 288
