LAMMPS (11 Nov 2013)
# created by fftool

print "Methane in TIP4P water"
Methane in TIP4P water

units real
boundary p p p

atom_style full
bond_style harmonic
angle_style harmonic
special_bonds lj/coul 0.0 0.0 0.5

read_data data.lmp
  1 = max bonds/atom
  6 = max angles/atom
  orthogonal box = (-13.4438 -13.4438 -13.4438) to (13.4438 13.4438 13.4438)
  2 by 2 by 2 MPI processor grid
  1085 atoms
  724 bonds
  366 angles
  4 = max # of 1-2 neighbors
  3 = max # of 1-3 neighbors
  3 = max # of 1-4 neighbors
  4 = max # of special neighbors

pair_style hybrid   lj/cut/coul/long 10.0 10.0   lj/cut/tip4p/long 3 4 2 2 0.125 10.0 10.0   lj/cut/tip4p/long/soft 3 4 2 2 0.125 1 0.5 10.0 10.0 10.0
pair_modify tail no
kspace_style pppm 1.0e-4

pair_coeff    1    1  lj/cut/coul/long    0.0660   3.5000  # C4H C4H
pair_coeff    1    2  lj/cut/coul/long    0.0445   2.9580  # C4H H
pair_coeff    2    2  lj/cut/coul/long    0.0300   2.5000  # H H
pair_coeff    3    3  lj/cut/tip4p/long   0.1628   3.1644  # Ow Ow
pair_coeff    3    4  lj/cut/tip4p/long   0.0000   0.0000  # Ow Hw
pair_coeff    4    4  lj/cut/tip4p/long   0.0000   0.0000  # Hw Hw

pair_coeff    1    3  lj/cut/tip4p/long/soft   0.1036   3.3279  0.0  # C4H Ow
pair_coeff    1    4  lj/cut/tip4p/long/soft   0.0000   0.0000  0.0  # C4H Hw
pair_coeff    2    3  lj/cut/tip4p/long/soft   0.0699   2.8126  0.0  # H Ow
pair_coeff    2    4  lj/cut/tip4p/long/soft   0.0000   0.0000  0.0  # H Hw

variable nsteps equal 2500000
variable nprint equal ${nsteps}/500
variable nprint equal 2500000/500
variable ndump equal ${nsteps}/100
variable ndump equal 2500000/100

variable temp equal 300.0
variable press equal 1.0

fix fSHAKE all shake 0.0001 20 ${nprint} b 2 a 2
fix fSHAKE all shake 0.0001 20 5000 b 2 a 2
  0 = # of size 2 clusters
  0 = # of size 3 clusters
  0 = # of size 4 clusters
  360 = # of frozen angles

neighbor 2.0 bin

timestep 2.0

# velocity all create ${temp} 12345

thermo_style multi
thermo ${nprint}
thermo 5000

fix fNPT all npt temp ${temp} ${temp} 100 iso ${press} ${press} 1000
fix fNPT all npt temp 300 ${temp} 100 iso ${press} ${press} 1000
fix fNPT all npt temp 300 300 100 iso ${press} ${press} 1000
fix fNPT all npt temp 300 300 100 iso 1 ${press} 1000
fix fNPT all npt temp 300 300 100 iso 1 1 1000

run 250000
PPPM initialization ...
  G vector (1/distance) = 0.270215
  grid = 15 15 15
  stencil order = 5
  estimated absolute RMS force accuracy = 0.0258727
  estimated relative force accuracy = 7.7915e-05
  using double precision FFTs
  3d grid and FFT values/proc = 2744 512
SHAKE stats (type/ave/delta) on step 0
  2 0.9572 1.71599e-05
  2 104.52 0.00161974
Memory usage per processor = 7.10488 Mbytes
---------------- Step        0 ----- CPU =      0.0000 (sec) ----------------
TotEng   =        22.9799 KinEng   =         0.0000 Temp     =         0.0000 
PotEng   =        22.9799 E_bond   =         0.0000 E_angle  =         0.1685 
E_dihed  =         0.0000 E_impro  =         0.0000 E_vdwl   =      -203.1677 
E_coul   =     29920.5835 E_long   =    -29694.6044 Press    =       553.8661 
Volume   =     19438.0383 
SHAKE stats (type/ave/delta) on step 5000
  2 0.956991 1.0524e-05
  2 104.52 0.0010292
---------------- Step     5000 ----- CPU =     25.1358 (sec) ----------------
TotEng   =     -3290.8254 KinEng   =       652.4347 Temp     =       302.3181 
PotEng   =     -3943.2602 E_bond   =         0.0020 E_angle  =         0.3228 
E_dihed  =         0.0000 E_impro  =         0.0000 E_vdwl   =       767.4513 
E_coul   =     25300.1524 E_long   =    -30011.1887 Press    =        43.6544 
Volume   =     11195.0423 
SHAKE stats (type/ave/delta) on step 10000
  2 0.956984 1.24914e-05
  2 104.52 0.00122265
---------------- Step    10000 ----- CPU =     52.3411 (sec) ----------------
TotEng   =     -3297.7429 KinEng   =       650.9227 Temp     =       301.6175 
PotEng   =     -3948.6656 E_bond   =         0.0212 E_angle  =         0.3258 
E_dihed  =         0.0000 E_impro  =         0.0000 E_vdwl   =       734.9126 
E_coul   =     25326.7063 E_long   =    -30010.6314 Press    =      -142.2056 
Volume   =     10973.4882 
SHAKE stats (type/ave/delta) on step 15000
  2 0.957033 1.13125e-05
  2 104.52 0.00074526
---------------- Step    15000 ----- CPU =     79.5448 (sec) ----------------
TotEng   =     -3248.1123 KinEng   =       674.2746 Temp     =       312.4380 
PotEng   =     -3922.3868 E_bond   =         0.0313 E_angle  =         0.4208 
E_dihed  =         0.0000 E_impro  =         0.0000 E_vdwl   =       711.3063 
E_coul   =     25379.1325 E_long   =    -30013.2778 Press    =      -165.2009 
Volume   =     10790.2889 
SHAKE stats (type/ave/delta) on step 20000
  2 0.957028 9.48084e-06
  2 104.52 0.000858772
---------------- Step    20000 ----- CPU =    107.0278 (sec) ----------------
TotEng   =     -3275.8772 KinEng   =       662.8199 Temp     =       307.1303 
PotEng   =     -3938.6972 E_bond   =         0.0165 E_angle  =         0.4704 
E_dihed  =         0.0000 E_impro  =         0.0000 E_vdwl   =       738.5625 
E_coul   =     25332.5514 E_long   =    -30010.2980 Press    =      -167.4041 
Volume   =     10961.0242 
SHAKE stats (type/ave/delta) on step 25000
  2 0.957 7.92092e-06
  2 104.52 0.000456518
---------------- Step    25000 ----- CPU =    134.7219 (sec) ----------------
TotEng   =     -3258.8886 KinEng   =       641.8794 Temp     =       297.4271 
PotEng   =     -3900.7679 E_bond   =         0.0500 E_angle  =         0.5785 
E_dihed  =         0.0000 E_impro  =         0.0000 E_vdwl   =       726.5941 
E_coul   =     25384.2260 E_long   =    -30012.2166 Press    =      -230.4186 
Volume   =     11071.7903 
SHAKE stats (type/ave/delta) on step 30000
  2 0.956988 7.3677e-06
  2 104.52 0.000661929
---------------- Step    30000 ----- CPU =    162.4751 (sec) ----------------
TotEng   =     -3318.7793 KinEng   =       661.4234 Temp     =       306.4832 
PotEng   =     -3980.2027 E_bond   =         0.1707 E_angle  =         0.7736 
E_dihed  =         0.0000 E_impro  =         0.0000 E_vdwl   =       773.7639 
E_coul   =     25251.5143 E_long   =    -30006.4252 Press    =       164.6307 
Volume   =     10970.2830 
SHAKE stats (type/ave/delta) on step 35000
  2 0.95698 4.53648e-06
  2 104.52 0.000424761
---------------- Step    35000 ----- CPU =    189.4258 (sec) ----------------
TotEng   =     -3263.6222 KinEng   =       649.3065 Temp     =       300.8686 
PotEng   =     -3912.9287 E_bond   =         0.0401 E_angle  =         1.1145 
E_dihed  =         0.0000 E_impro  =         0.0000 E_vdwl   =       797.4318 
E_coul   =     25298.4111 E_long   =    -30009.9262 Press    =      1411.7524 
Volume   =     10933.4495 
SHAKE stats (type/ave/delta) on step 40000
  2 0.957028 4.41643e-06
  2 104.52 0.000430078
---------------- Step    40000 ----- CPU =    217.1776 (sec) ----------------
TotEng   =     -3201.5082 KinEng   =       640.5737 Temp     =       296.8221 
PotEng   =     -3842.0818 E_bond   =         0.0695 E_angle  =         1.8698 
E_dihed  =         0.0000 E_impro  =         0.0000 E_vdwl   =       702.6560 
E_coul   =     25462.9362 E_long   =    -30009.6134 Press    =      -284.6102 
Volume   =     11094.2964 
SHAKE stats (type/ave/delta) on step 45000
  2 0.957017 6.27052e-06
  2 104.52 0.000556148
---------------- Step    45000 ----- CPU =    243.3935 (sec) ----------------
TotEng   =     -3227.0513 KinEng   =       681.6495 Temp     =       315.8554 
PotEng   =     -3908.7008 E_bond   =         0.0782 E_angle  =         1.3519 
E_dihed  =         0.0000 E_impro  =         0.0000 E_vdwl   =       781.8801 
E_coul   =     25318.8512 E_long   =    -30010.8622 Press    =      1342.7289 
Volume   =     10863.0118 
SHAKE stats (type/ave/delta) on step 50000
  2 0.957006 5.99868e-06
  2 104.52 0.00047264
---------------- Step    50000 ----- CPU =    270.6354 (sec) ----------------
TotEng   =     -3295.1001 KinEng   =       619.3632 Temp     =       286.9938 
PotEng   =     -3914.4633 E_bond   =         0.1829 E_angle  =         1.1789 
E_dihed  =         0.0000 E_impro  =         0.0000 E_vdwl   =       700.9180 
E_coul   =     25393.1615 E_long   =    -30009.9046 Press    =      -751.1574 
Volume   =     10985.9741 
SHAKE stats (type/ave/delta) on step 55000
  2 0.957019 1.11245e-05
  2 104.52 0.000858634
---------------- Step    55000 ----- CPU =    297.4348 (sec) ----------------
TotEng   =     -3312.6796 KinEng   =       648.6442 Temp     =       300.5617 
PotEng   =     -3961.3238 E_bond   =         0.1406 E_angle  =         2.0092 
E_dihed  =         0.0000 E_impro  =         0.0000 E_vdwl   =       744.2290 
E_coul   =     25305.9904 E_long   =    -30013.6930 Press    =       116.6318 
Volume   =     10749.9620 
SHAKE stats (type/ave/delta) on step 60000
  2 0.957006 5.0518e-06
  2 104.52 0.000531093
---------------- Step    60000 ----- CPU =    323.8556 (sec) ----------------
TotEng   =     -3341.5691 KinEng   =       648.0503 Temp     =       300.2865 
PotEng   =     -3989.6195 E_bond   =         0.2312 E_angle  =         1.2781 
E_dihed  =         0.0000 E_impro  =         0.0000 E_vdwl   =       812.7323 
E_coul   =     25207.1981 E_long   =    -30011.0592 Press    =       901.7796 
Volume   =     10976.1961 
SHAKE stats (type/ave/delta) on step 65000
  2 0.956993 1.2511e-05
  2 104.52 0.000985362
---------------- Step    65000 ----- CPU =    352.2388 (sec) ----------------
TotEng   =     -3331.6076 KinEng   =       628.6944 Temp     =       291.3176 
PotEng   =     -3960.3020 E_bond   =         0.2329 E_angle  =         1.1382 
E_dihed  =         0.0000 E_impro  =         0.0000 E_vdwl   =       663.7316 
E_coul   =     25388.1016 E_long   =    -30013.5062 Press    =     -1155.8609 
Volume   =     10697.9241 
SHAKE stats (type/ave/delta) on step 70000
  2 0.956964 8.94836e-06
  2 104.52 0.00114958
---------------- Step    70000 ----- CPU =    379.4778 (sec) ----------------
TotEng   =     -3276.5118 KinEng   =       661.3619 Temp     =       306.4547 
PotEng   =     -3937.8736 E_bond   =         0.1147 E_angle  =         0.8707 
E_dihed  =         0.0000 E_impro  =         0.0000 E_vdwl   =       652.9853 
E_coul   =     25420.0502 E_long   =    -30011.8944 Press    =     -1562.4090 
Volume   =     10803.4647 
SHAKE stats (type/ave/delta) on step 75000
  2 0.957005 6.24974e-06
  2 104.52 0.000723895
---------------- Step    75000 ----- CPU =    406.3782 (sec) ----------------
TotEng   =     -3302.0915 KinEng   =       648.3762 Temp     =       300.4376 
PotEng   =     -3950.4677 E_bond   =         0.1474 E_angle  =         1.5145 
E_dihed  =         0.0000 E_impro  =         0.0000 E_vdwl   =       752.3384 
E_coul   =     25307.4179 E_long   =    -30011.8860 Press    =      -413.4952 
Volume   =     11127.7948 
SHAKE stats (type/ave/delta) on step 80000
  2 0.957034 1.05635e-05
  2 104.52 0.00105948
---------------- Step    80000 ----- CPU =    432.2930 (sec) ----------------
TotEng   =     -3281.2991 KinEng   =       641.8429 Temp     =       297.4102 
PotEng   =     -3923.1420 E_bond   =         0.0911 E_angle  =         1.8868 
E_dihed  =         0.0000 E_impro  =         0.0000 E_vdwl   =       714.7654 
E_coul   =     25370.2100 E_long   =    -30010.0952 Press    =      -133.3210 
Volume   =     10842.6953 
SHAKE stats (type/ave/delta) on step 85000
  2 0.95695 4.28944e-06
  2 104.52 0.000428539
---------------- Step    85000 ----- CPU =    460.2608 (sec) ----------------
TotEng   =     -3257.6606 KinEng   =       662.7544 Temp     =       307.0999 
PotEng   =     -3920.4150 E_bond   =         0.0540 E_angle  =         1.7345 
E_dihed  =         0.0000 E_impro  =         0.0000 E_vdwl   =       669.5297 
E_coul   =     25417.7704 E_long   =    -30009.5036 Press    =      -675.1849 
Volume   =     10575.5326 
SHAKE stats (type/ave/delta) on step 90000
  2 0.957001 1.15653e-05
  2 104.52 0.00099082
---------------- Step    90000 ----- CPU =    487.7397 (sec) ----------------
TotEng   =     -3277.2474 KinEng   =       671.7541 Temp     =       311.2701 
PotEng   =     -3949.0014 E_bond   =         0.1458 E_angle  =         1.3085 
E_dihed  =         0.0000 E_impro  =         0.0000 E_vdwl   =       697.2453 
E_coul   =     25363.0196 E_long   =    -30010.7208 Press    =     -1255.7488 
Volume   =     11257.5871 
SHAKE stats (type/ave/delta) on step 95000
  2 0.957042 4.37672e-06
  2 104.52 0.000377441
---------------- Step    95000 ----- CPU =    515.4173 (sec) ----------------
TotEng   =     -3383.4557 KinEng   =       613.4812 Temp     =       284.2683 
PotEng   =     -3996.9370 E_bond   =         0.1056 E_angle  =         1.4243 
E_dihed  =         0.0000 E_impro  =         0.0000 E_vdwl   =       774.6426 
E_coul   =     25239.1993 E_long   =    -30012.3088 Press    =      -209.2312 
Volume   =     11144.0735 
SHAKE stats (type/ave/delta) on step 100000
  2 0.957003 4.59718e-06
  2 104.52 0.000416868
---------------- Step   100000 ----- CPU =    542.5814 (sec) ----------------
TotEng   =     -3301.7479 KinEng   =       642.7076 Temp     =       297.8109 
PotEng   =     -3944.4555 E_bond   =         0.5941 E_angle  =         0.9108 
E_dihed  =         0.0000 E_impro  =         0.0000 E_vdwl   =       764.1893 
E_coul   =     25303.3759 E_long   =    -30013.5256 Press    =       525.2564 
Volume   =     10769.9821 
SHAKE stats (type/ave/delta) on step 105000
  2 0.956945 5.06523e-06
  2 104.52 0.000358935
---------------- Step   105000 ----- CPU =    568.9633 (sec) ----------------
TotEng   =     -3329.6060 KinEng   =       636.0106 Temp     =       294.7077 
PotEng   =     -3965.6166 E_bond   =         0.0722 E_angle  =         1.3693 
E_dihed  =         0.0000 E_impro  =         0.0000 E_vdwl   =       728.3153 
E_coul   =     25312.1706 E_long   =    -30007.5439 Press    =      -483.6083 
Volume   =     10904.7261 
SHAKE stats (type/ave/delta) on step 110000
  2 0.956947 1.70972e-05
  2 104.52 0.000945789
---------------- Step   110000 ----- CPU =    595.5957 (sec) ----------------
TotEng   =     -3291.8742 KinEng   =       643.0846 Temp     =       297.9856 
PotEng   =     -3934.9587 E_bond   =         0.1572 E_angle  =         2.6092 
E_dihed  =         0.0000 E_impro  =         0.0000 E_vdwl   =       727.8568 
E_coul   =     25347.3062 E_long   =    -30012.8880 Press    =       -97.3986 
Volume   =     10919.3347 
SHAKE stats (type/ave/delta) on step 115000
  2 0.956971 1.1025e-05
  2 104.52 0.000953076
---------------- Step   115000 ----- CPU =    623.0525 (sec) ----------------
TotEng   =     -3319.0979 KinEng   =       624.6691 Temp     =       289.4524 
PotEng   =     -3943.7670 E_bond   =         0.2298 E_angle  =         2.8875 
E_dihed  =         0.0000 E_impro  =         0.0000 E_vdwl   =       772.7843 
E_coul   =     25291.6010 E_long   =    -30011.2697 Press    =       276.5873 
Volume   =     10953.2273 
SHAKE stats (type/ave/delta) on step 120000
  2 0.95697 1.11494e-05
  2 104.52 0.00106738
---------------- Step   120000 ----- CPU =    649.7716 (sec) ----------------
TotEng   =     -3320.0146 KinEng   =       616.7507 Temp     =       285.7832 
PotEng   =     -3936.7653 E_bond   =         0.1252 E_angle  =         1.5561 
E_dihed  =         0.0000 E_impro  =         0.0000 E_vdwl   =       709.4759 
E_coul   =     25365.9623 E_long   =    -30013.8848 Press    =      -436.2198 
Volume   =     10736.6846 
SHAKE stats (type/ave/delta) on step 125000
  2 0.956969 4.8711e-06
  2 104.52 0.000389456
---------------- Step   125000 ----- CPU =    676.4118 (sec) ----------------
TotEng   =     -3261.7862 KinEng   =       676.9154 Temp     =       313.6617 
PotEng   =     -3938.7016 E_bond   =         0.0033 E_angle  =         0.8864 
E_dihed  =         0.0000 E_impro  =         0.0000 E_vdwl   =       764.5554 
E_coul   =     25305.0828 E_long   =    -30009.2295 Press    =       395.0007 
Volume   =     10971.1964 
SHAKE stats (type/ave/delta) on step 130000
  2 0.957043 4.69508e-06
  2 104.52 0.000376971
---------------- Step   130000 ----- CPU =    703.6393 (sec) ----------------
TotEng   =     -3272.8526 KinEng   =       643.9755 Temp     =       298.3984 
PotEng   =     -3916.8281 E_bond   =         0.2748 E_angle  =         1.4925 
E_dihed  =         0.0000 E_impro  =         0.0000 E_vdwl   =       676.0733 
E_coul   =     25417.3856 E_long   =    -30012.0543 Press    =     -1384.6782 
Volume   =     11282.8186 
SHAKE stats (type/ave/delta) on step 135000
  2 0.957054 6.19873e-06
  2 104.52 0.000546896
---------------- Step   135000 ----- CPU =    731.5471 (sec) ----------------
TotEng   =     -3234.1972 KinEng   =       656.9898 Temp     =       304.4288 
PotEng   =     -3891.1869 E_bond   =         0.5980 E_angle  =         3.2909 
E_dihed  =         0.0000 E_impro  =         0.0000 E_vdwl   =       752.8949 
E_coul   =     25364.0454 E_long   =    -30012.0161 Press    =       879.2300 
Volume   =     10925.9007 
SHAKE stats (type/ave/delta) on step 140000
  2 0.956998 6.53545e-06
  2 104.52 0.000736457
---------------- Step   140000 ----- CPU =    759.1189 (sec) ----------------
TotEng   =     -3331.4442 KinEng   =       670.2523 Temp     =       310.5742 
PotEng   =     -4001.6965 E_bond   =         0.1323 E_angle  =         4.0051 
E_dihed  =         0.0000 E_impro  =         0.0000 E_vdwl   =       762.7037 
E_coul   =     25245.5827 E_long   =    -30014.1202 Press    =       261.4835 
Volume   =     10807.7661 
SHAKE stats (type/ave/delta) on step 145000
  2 0.957009 5.58512e-06
  2 104.52 0.000415208
---------------- Step   145000 ----- CPU =    786.2593 (sec) ----------------
TotEng   =     -3235.8326 KinEng   =       684.2774 Temp     =       317.0731 
PotEng   =     -3920.1100 E_bond   =         1.6604 E_angle  =         1.5393 
E_dihed  =         0.0000 E_impro  =         0.0000 E_vdwl   =       778.0939 
E_coul   =     25306.7425 E_long   =    -30008.1462 Press    =      1152.2869 
Volume   =     10795.2334 
SHAKE stats (type/ave/delta) on step 150000
  2 0.957012 1.21893e-05
  2 104.52 0.00136644
---------------- Step   150000 ----- CPU =    813.4382 (sec) ----------------
TotEng   =     -3290.2745 KinEng   =       663.8120 Temp     =       307.5900 
PotEng   =     -3954.0865 E_bond   =         0.1118 E_angle  =         2.1416 
E_dihed  =         0.0000 E_impro  =         0.0000 E_vdwl   =       774.1058 
E_coul   =     25281.8749 E_long   =    -30012.3207 Press    =       522.1874 
Volume   =     10983.1144 
SHAKE stats (type/ave/delta) on step 155000
  2 0.957009 5.26709e-06
  2 104.52 0.000440365
---------------- Step   155000 ----- CPU =    840.5088 (sec) ----------------
TotEng   =     -3188.7224 KinEng   =       672.4103 Temp     =       311.5742 
PotEng   =     -3861.1327 E_bond   =         0.1571 E_angle  =         3.3613 
E_dihed  =         0.0000 E_impro  =         0.0000 E_vdwl   =       710.8716 
E_coul   =     25435.0213 E_long   =    -30010.5439 Press    =      -150.5258 
Volume   =     11045.6084 
SHAKE stats (type/ave/delta) on step 160000
  2 0.957065 9.64033e-06
  2 104.52 0.000588746
---------------- Step   160000 ----- CPU =    867.7829 (sec) ----------------
TotEng   =     -3329.6621 KinEng   =       633.6550 Temp     =       293.6162 
PotEng   =     -3963.3171 E_bond   =         0.3416 E_angle  =         3.0991 
E_dihed  =         0.0000 E_impro  =         0.0000 E_vdwl   =       732.2735 
E_coul   =     25310.6402 E_long   =    -30009.6715 Press    =      -949.2807 
Volume   =     11267.4226 
SHAKE stats (type/ave/delta) on step 165000
  2 0.957007 8.91904e-06
  2 104.52 0.000754532
---------------- Step   165000 ----- CPU =    895.9498 (sec) ----------------
TotEng   =     -3385.4617 KinEng   =       613.8006 Temp     =       284.4162 
PotEng   =     -3999.2623 E_bond   =         0.2337 E_angle  =         0.8308 
E_dihed  =         0.0000 E_impro  =         0.0000 E_vdwl   =       753.1759 
E_coul   =     25260.3636 E_long   =    -30013.8663 Press    =       -26.5546 
Volume   =     10701.4219 
SHAKE stats (type/ave/delta) on step 170000
  2 0.956992 6.9989e-06
  2 104.52 0.000607157
---------------- Step   170000 ----- CPU =    923.3808 (sec) ----------------
TotEng   =     -3315.7978 KinEng   =       655.9126 Temp     =       303.9297 
PotEng   =     -3971.7104 E_bond   =         0.3582 E_angle  =         2.6744 
E_dihed  =         0.0000 E_impro  =         0.0000 E_vdwl   =       803.5134 
E_coul   =     25234.0634 E_long   =    -30012.3199 Press    =      1117.2162 
Volume   =     10846.4862 
SHAKE stats (type/ave/delta) on step 175000
  2 0.957052 7.16659e-06
  2 104.52 0.00044797
---------------- Step   175000 ----- CPU =    950.4149 (sec) ----------------
TotEng   =     -3300.0270 KinEng   =       634.5245 Temp     =       294.0191 
PotEng   =     -3934.5515 E_bond   =         0.0501 E_angle  =         1.6479 
E_dihed  =         0.0000 E_impro  =         0.0000 E_vdwl   =       670.5130 
E_coul   =     25400.5024 E_long   =    -30007.2649 Press    =     -1580.0905 
Volume   =     10955.6734 
SHAKE stats (type/ave/delta) on step 180000
  2 0.957056 5.59141e-06
  2 104.52 0.00042002
---------------- Step   180000 ----- CPU =    978.1029 (sec) ----------------
TotEng   =     -3239.2927 KinEng   =       677.3929 Temp     =       313.8830 
PotEng   =     -3916.6856 E_bond   =         1.4307 E_angle  =         2.3741 
E_dihed  =         0.0000 E_impro  =         0.0000 E_vdwl   =       735.7551 
E_coul   =     25354.3443 E_long   =    -30010.5898 Press    =      -121.9361 
Volume   =     11049.1731 
SHAKE stats (type/ave/delta) on step 185000
  2 0.95703 6.54701e-06
  2 104.52 0.000507389
---------------- Step   185000 ----- CPU =   1005.3559 (sec) ----------------
TotEng   =     -3197.3169 KinEng   =       655.4818 Temp     =       303.7300 
PotEng   =     -3852.7987 E_bond   =         0.3974 E_angle  =         1.5783 
E_dihed  =         0.0000 E_impro  =         0.0000 E_vdwl   =       692.8343 
E_coul   =     25460.5680 E_long   =    -30008.1767 Press    =      -191.8949 
Volume   =     10981.8204 
SHAKE stats (type/ave/delta) on step 190000
  2 0.956953 6.80185e-06
  2 104.52 0.000600709
---------------- Step   190000 ----- CPU =   1032.4833 (sec) ----------------
TotEng   =     -3242.8718 KinEng   =       668.7853 Temp     =       309.8945 
PotEng   =     -3911.6571 E_bond   =         0.0507 E_angle  =         2.7347 
E_dihed  =         0.0000 E_impro  =         0.0000 E_vdwl   =       737.7668 
E_coul   =     25358.4844 E_long   =    -30010.6937 Press    =       236.6689 
Volume   =     10934.3824 
SHAKE stats (type/ave/delta) on step 195000
  2 0.956988 4.72054e-06
  2 104.52 0.000444426
---------------- Step   195000 ----- CPU =   1059.8861 (sec) ----------------
TotEng   =     -3261.5362 KinEng   =       673.3717 Temp     =       312.0197 
PotEng   =     -3934.9078 E_bond   =         0.1245 E_angle  =         1.2847 
E_dihed  =         0.0000 E_impro  =         0.0000 E_vdwl   =       743.8127 
E_coul   =     25330.9542 E_long   =    -30011.0840 Press    =        31.3836 
Volume   =     10990.8418 
SHAKE stats (type/ave/delta) on step 200000
  2 0.956996 6.84659e-06
  2 104.52 0.000739318
---------------- Step   200000 ----- CPU =   1088.0246 (sec) ----------------
TotEng   =     -3349.0518 KinEng   =       633.2622 Temp     =       293.4342 
PotEng   =     -3982.3140 E_bond   =         0.3296 E_angle  =         3.3899 
E_dihed  =         0.0000 E_impro  =         0.0000 E_vdwl   =       779.1686 
E_coul   =     25241.1555 E_long   =    -30006.3576 Press    =       549.4328 
Volume   =     10773.8814 
SHAKE stats (type/ave/delta) on step 205000
  2 0.957003 6.80612e-06
  2 104.52 0.000473896
---------------- Step   205000 ----- CPU =   1114.8239 (sec) ----------------
TotEng   =     -3290.3062 KinEng   =       658.8561 Temp     =       305.2936 
PotEng   =     -3949.1622 E_bond   =         0.1520 E_angle  =         0.9730 
E_dihed  =         0.0000 E_impro  =         0.0000 E_vdwl   =       776.8849 
E_coul   =     25283.5080 E_long   =    -30010.6801 Press    =      1071.9672 
Volume   =     10766.2744 
SHAKE stats (type/ave/delta) on step 210000
  2 0.957002 7.08153e-06
  2 104.52 0.000426908
---------------- Step   210000 ----- CPU =   1141.8302 (sec) ----------------
TotEng   =     -3307.1410 KinEng   =       649.8528 Temp     =       301.1217 
PotEng   =     -3956.9938 E_bond   =         0.8896 E_angle  =         2.5010 
E_dihed  =         0.0000 E_impro  =         0.0000 E_vdwl   =       712.8646 
E_coul   =     25337.5302 E_long   =    -30010.7792 Press    =      -632.8682 
Volume   =     11052.5609 
SHAKE stats (type/ave/delta) on step 215000
  2 0.95703 7.59387e-06
  2 104.52 0.000561754
---------------- Step   215000 ----- CPU =   1168.9673 (sec) ----------------
TotEng   =     -3288.1796 KinEng   =       605.9328 Temp     =       280.7706 
PotEng   =     -3894.1124 E_bond   =         0.1586 E_angle  =         1.6042 
E_dihed  =         0.0000 E_impro  =         0.0000 E_vdwl   =       679.9743 
E_coul   =     25434.7370 E_long   =    -30010.5866 Press    =     -1351.2424 
Volume   =     11383.2121 
SHAKE stats (type/ave/delta) on step 220000
  2 0.957005 5.44087e-06
  2 104.52 0.000657786
---------------- Step   220000 ----- CPU =   1196.1240 (sec) ----------------
TotEng   =     -3313.5283 KinEng   =       626.3526 Temp     =       290.2325 
PotEng   =     -3939.8809 E_bond   =         0.9134 E_angle  =         1.1727 
E_dihed  =         0.0000 E_impro  =         0.0000 E_vdwl   =       730.8766 
E_coul   =     25339.3345 E_long   =    -30012.1781 Press    =        28.0115 
Volume   =     10926.3582 
SHAKE stats (type/ave/delta) on step 225000
  2 0.956989 1.37702e-05
  2 104.52 0.000852541
---------------- Step   225000 ----- CPU =   1223.2694 (sec) ----------------
TotEng   =     -3305.5373 KinEng   =       659.7311 Temp     =       305.6991 
PotEng   =     -3965.2684 E_bond   =         0.2354 E_angle  =         1.8150 
E_dihed  =         0.0000 E_impro  =         0.0000 E_vdwl   =       771.1391 
E_coul   =     25272.8526 E_long   =    -30011.3105 Press    =       573.8037 
Volume   =     10806.0877 
SHAKE stats (type/ave/delta) on step 230000
  2 0.956954 6.50683e-06
  2 104.52 0.000594113
---------------- Step   230000 ----- CPU =   1250.1246 (sec) ----------------
TotEng   =     -3333.1045 KinEng   =       631.9292 Temp     =       292.8165 
PotEng   =     -3965.0337 E_bond   =         1.0516 E_angle  =         1.1076 
E_dihed  =         0.0000 E_impro  =         0.0000 E_vdwl   =       773.2411 
E_coul   =     25272.2973 E_long   =    -30012.7314 Press    =      1103.9830 
Volume   =     10659.9644 
SHAKE stats (type/ave/delta) on step 235000
  2 0.957001 5.11419e-06
  2 104.52 0.00038724
---------------- Step   235000 ----- CPU =   1276.9962 (sec) ----------------
TotEng   =     -3281.7262 KinEng   =       650.8805 Temp     =       301.5980 
PotEng   =     -3932.6067 E_bond   =         0.7122 E_angle  =         0.6288 
E_dihed  =         0.0000 E_impro  =         0.0000 E_vdwl   =       721.0247 
E_coul   =     25354.3742 E_long   =    -30009.3466 Press    =      -378.5661 
Volume   =     10933.3794 
SHAKE stats (type/ave/delta) on step 240000
  2 0.95699 4.95193e-06
  2 104.52 0.000393556
---------------- Step   240000 ----- CPU =   1304.0782 (sec) ----------------
TotEng   =     -3260.4155 KinEng   =       633.6118 Temp     =       293.5962 
PotEng   =     -3894.0274 E_bond   =         1.0184 E_angle  =         0.7664 
E_dihed  =         0.0000 E_impro  =         0.0000 E_vdwl   =       748.5373 
E_coul   =     25363.3533 E_long   =    -30007.7027 Press    =       508.0015 
Volume   =     10896.5045 
SHAKE stats (type/ave/delta) on step 245000
  2 0.956967 6.18631e-06
  2 104.52 0.000552786
---------------- Step   245000 ----- CPU =   1330.5517 (sec) ----------------
TotEng   =     -3284.5132 KinEng   =       672.4585 Temp     =       311.5965 
PotEng   =     -3956.9717 E_bond   =         0.1904 E_angle  =         1.1202 
E_dihed  =         0.0000 E_impro  =         0.0000 E_vdwl   =       741.5346 
E_coul   =     25312.9022 E_long   =    -30012.7191 Press    =       -43.7699 
Volume   =     10981.9565 
SHAKE stats (type/ave/delta) on step 250000
  2 0.95696 9.81031e-06
  2 104.52 0.000860971
---------------- Step   250000 ----- CPU =   1357.1361 (sec) ----------------
TotEng   =     -3289.9608 KinEng   =       642.5323 Temp     =       297.7297 
PotEng   =     -3932.4931 E_bond   =         0.1617 E_angle  =         1.0431 
E_dihed  =         0.0000 E_impro  =         0.0000 E_vdwl   =       751.9545 
E_coul   =     25324.7508 E_long   =    -30010.4031 Press    =       431.4195 
Volume   =     10950.6561 
Loop time of 1357.14 on 8 procs for 250000 steps with 1085 atoms

Pair  time (%) = 897.124 (66.1042)
Bond  time (%) = 0.169465 (0.012487)
Kspce time (%) = 225.417 (16.6098)
Neigh time (%) = 47.6597 (3.51178)
Comm  time (%) = 63.5608 (4.68345)
Outpt time (%) = 0.00270084 (0.00019901)
Other time (%) = 123.202 (9.07812)

FFT time (% of Kspce) = 25.5959 (11.3549)
FFT Gflps 3d (1d only) = 5.35614 35.7386

Nlocal:    135.625 ave 151 max 126 min
Histogram: 1 1 2 1 1 0 0 1 0 1
Nghost:    4317.75 ave 4345 max 4290 min
Histogram: 1 0 1 1 1 1 1 0 1 1
Neighs:    51620.6 ave 61058 max 44384 min
Histogram: 1 1 0 2 1 1 1 0 0 1

Total # of neighbors = 412965
Ave neighs/atom = 380.613
Ave special neighs/atom = 2.00922
Neighbor list builds = 19839
Dangerous builds = 2417

reset_timestep 0

variable lambda equal ramp(0.0,1.0)

fix fADAPT all adapt 125000   pair lj/cut/tip4p/long/soft lambda 1 3 v_lambda   pair lj/cut/tip4p/long/soft lambda 1 4 v_lambda   pair lj/cut/tip4p/long/soft lambda 2 3 v_lambda   pair lj/cut/tip4p/long/soft lambda 2 4 v_lambda   after yes

variable dlambda equal 0.002

compute cFEP all fep ${temp}   pair lj/cut/tip4p/long/soft lambda 1 3 v_dlambda   pair lj/cut/tip4p/long/soft lambda 1 4 v_dlambda   pair lj/cut/tip4p/long/soft lambda 2 3 v_dlambda   pair lj/cut/tip4p/long/soft lambda 2 4 v_dlambda
compute cFEP all fep 300   pair lj/cut/tip4p/long/soft lambda 1 3 v_dlambda   pair lj/cut/tip4p/long/soft lambda 1 4 v_dlambda   pair lj/cut/tip4p/long/soft lambda 2 3 v_dlambda   pair lj/cut/tip4p/long/soft lambda 2 4 v_dlambda

fix fFEP all ave/time 25 4000 125000 c_cFEP[1] c_cFEP[2] file fdti01.lmp

# compute cRDF all rdf 100 3 3 3 4 4 4
# fix fRDF all ave/time 2000 500 ${nsteps} c_cRDF file rdf.lammps mode vector

group owater type 3
360 atoms in group owater
compute cMSD owater msd
fix fMSD owater ave/time 1 1 ${ndump} c_cMSD[1] c_cMSD[2] c_cMSD[3] c_cMSD[4] file msd.lammps
fix fMSD owater ave/time 1 1 25000 c_cMSD[1] c_cMSD[2] c_cMSD[3] c_cMSD[4] file msd.lammps

dump dCONF all custom ${ndump} dump.lammpstrj id mol type element x y z ix iy iz
dump dCONF all custom 25000 dump.lammpstrj id mol type element x y z ix iy iz
dump_modify dCONF element C H O H

run ${nsteps}
run 2500000
PPPM initialization ...
  G vector (1/distance) = 0.285733
  grid = 15 15 15
  stencil order = 5
  estimated absolute RMS force accuracy = 0.0145408
  estimated relative force accuracy = 4.37892e-05
  using double precision FFTs
  3d grid and FFT values/proc = 2744 512
FEP settings ...
  temperature = 300.000000
  tail no
  lj/cut/tip4p/long/soft lambda 1-1 3-3
  lj/cut/tip4p/long/soft lambda 1-1 4-4
  lj/cut/tip4p/long/soft lambda 2-2 3-3
  lj/cut/tip4p/long/soft lambda 2-2 4-4
SHAKE stats (type/ave/delta) on step 0
  2 0.95696 9.81031e-06
  2 104.52 0.000860971
Memory usage per processor = 8.45489 Mbytes
---------------- Step        0 ----- CPU =      0.0000 (sec) ----------------
TotEng   =     -3288.8427 KinEng   =       642.5323 Temp     =       297.7297 
PotEng   =     -3931.3750 E_bond   =         0.1617 E_angle  =         1.0431 
E_dihed  =         0.0000 E_impro  =         0.0000 E_vdwl   =       751.9545 
E_coul   =     27046.6594 E_long   =    -31731.1937 Press    =       421.7869 
Volume   =     10950.6561 
SHAKE stats (type/ave/delta) on step 5000
  2 0.957004 5.95338e-06
  2 104.52 0.000422693
---------------- Step     5000 ----- CPU =     27.8464 (sec) ----------------
TotEng   =     -3240.0166 KinEng   =       675.6494 Temp     =       313.0751 
PotEng   =     -3915.6659 E_bond   =         0.1026 E_angle  =         1.0854 
E_dihed  =         0.0000 E_impro  =         0.0000 E_vdwl   =       733.3507 
E_coul   =     27083.0030 E_long   =    -31733.2077 Press    =       118.3118 
Volume   =     10962.8638 
SHAKE stats (type/ave/delta) on step 10000
  2 0.95695 9.25472e-06
  2 104.52 0.000572564
---------------- Step    10000 ----- CPU =     55.0514 (sec) ----------------
TotEng   =     -3306.2016 KinEng   =       664.1019 Temp     =       307.7243 
PotEng   =     -3970.3035 E_bond   =         1.1911 E_angle  =         1.5434 
E_dihed  =         0.0000 E_impro  =         0.0000 E_vdwl   =       770.3677 
E_coul   =     26990.7158 E_long   =    -31734.1215 Press    =       388.0788 
Volume   =     10837.8295 
SHAKE stats (type/ave/delta) on step 15000
  2 0.957044 4.45589e-06
  2 104.52 0.000405464
---------------- Step    15000 ----- CPU =     82.4179 (sec) ----------------
TotEng   =     -3358.1294 KinEng   =       636.5602 Temp     =       294.9624 
PotEng   =     -3994.6897 E_bond   =         0.2098 E_angle  =         0.8777 
E_dihed  =         0.0000 E_impro  =         0.0000 E_vdwl   =       792.3473 
E_coul   =     26946.3990 E_long   =    -31734.5235 Press    =       735.0505 
Volume   =     10787.8721 
SHAKE stats (type/ave/delta) on step 20000
  2 0.95699 6.122e-06
  2 104.52 0.000458897
---------------- Step    20000 ----- CPU =    109.2488 (sec) ----------------
TotEng   =     -3206.5882 KinEng   =       654.2281 Temp     =       303.1491 
PotEng   =     -3860.8163 E_bond   =         0.4103 E_angle  =         0.8574 
E_dihed  =         0.0000 E_impro  =         0.0000 E_vdwl   =       703.6773 
E_coul   =     27163.7446 E_long   =    -31729.5059 Press    =       310.4724 
Volume   =     10671.6712 
SHAKE stats (type/ave/delta) on step 25000
  2 0.957007 9.39098e-06
  2 104.52 0.00048938
---------------- Step    25000 ----- CPU =    136.6372 (sec) ----------------
TotEng   =     -3218.9985 KinEng   =       677.2316 Temp     =       313.8082 
PotEng   =     -3896.2300 E_bond   =         0.3779 E_angle  =         0.9044 
E_dihed  =         0.0000 E_impro  =         0.0000 E_vdwl   =       721.9031 
E_coul   =     27113.6649 E_long   =    -31733.0804 Press    =       237.5978 
Volume   =     10871.4425 
SHAKE stats (type/ave/delta) on step 30000
  2 0.957019 1.06336e-05
  2 104.52 0.00120702
---------------- Step    30000 ----- CPU =    165.3647 (sec) ----------------
TotEng   =     -3274.2365 KinEng   =       646.7920 Temp     =       299.7035 
PotEng   =     -3921.0285 E_bond   =         0.7261 E_angle  =         0.3557 
E_dihed  =         0.0000 E_impro  =         0.0000 E_vdwl   =       785.6128 
E_coul   =     27019.9544 E_long   =    -31727.6775 Press    =       927.8208 
Volume   =     11028.9888 
SHAKE stats (type/ave/delta) on step 35000
  2 0.957026 9.15729e-06
  2 104.52 0.000940486
---------------- Step    35000 ----- CPU =    194.8124 (sec) ----------------
TotEng   =     -3347.7760 KinEng   =       624.2934 Temp     =       289.2783 
PotEng   =     -3972.0694 E_bond   =         0.0599 E_angle  =         1.6517 
E_dihed  =         0.0000 E_impro  =         0.0000 E_vdwl   =       720.5687 
E_coul   =     27039.5966 E_long   =    -31733.9462 Press    =       -80.8015 
Volume   =     10614.4601 
SHAKE stats (type/ave/delta) on step 40000
  2 0.956992 1.0597e-05
  2 104.52 0.00118636
---------------- Step    40000 ----- CPU =    224.4461 (sec) ----------------
TotEng   =     -3353.3823 KinEng   =       613.3540 Temp     =       284.2093 
PotEng   =     -3966.7363 E_bond   =         0.1474 E_angle  =         1.6233 
E_dihed  =         0.0000 E_impro  =         0.0000 E_vdwl   =       697.1090 
E_coul   =     27070.2237 E_long   =    -31735.8397 Press    =     -1255.7431 
Volume   =     11093.4921 
SHAKE stats (type/ave/delta) on step 45000
  2 0.956955 1.00017e-05
  2 104.52 0.000905677
---------------- Step    45000 ----- CPU =    253.2233 (sec) ----------------
TotEng   =     -3164.7451 KinEng   =       674.9564 Temp     =       312.7540 
PotEng   =     -3839.7015 E_bond   =         0.4160 E_angle  =         0.6972 
E_dihed  =         0.0000 E_impro  =         0.0000 E_vdwl   =       734.4213 
E_coul   =     27156.7826 E_long   =    -31732.0185 Press    =      1146.6908 
Volume   =     10803.7347 
SHAKE stats (type/ave/delta) on step 50000
  2 0.956942 5.13602e-06
  2 104.52 0.000431292
---------------- Step    50000 ----- CPU =    281.6882 (sec) ----------------
TotEng   =     -3327.3985 KinEng   =       650.0086 Temp     =       301.1939 
PotEng   =     -3977.4071 E_bond   =         0.0676 E_angle  =         2.7159 
E_dihed  =         0.0000 E_impro  =         0.0000 E_vdwl   =       708.6338 
E_coul   =     27047.6088 E_long   =    -31736.4331 Press    =      -822.4337 
Volume   =     10837.5961 
SHAKE stats (type/ave/delta) on step 55000
  2 0.95703 8.70618e-06
  2 104.52 0.000583566
---------------- Step    55000 ----- CPU =    310.6332 (sec) ----------------
TotEng   =     -3268.6580 KinEng   =       643.8199 Temp     =       298.3263 
PotEng   =     -3912.4779 E_bond   =         0.1690 E_angle  =         2.5875 
E_dihed  =         0.0000 E_impro  =         0.0000 E_vdwl   =       693.0357 
E_coul   =     27120.8977 E_long   =    -31729.1679 Press    =      -964.0035 
Volume   =     11034.0956 
SHAKE stats (type/ave/delta) on step 60000
  2 0.956989 1.08653e-05
  2 104.52 0.000651552
---------------- Step    60000 ----- CPU =    339.0963 (sec) ----------------
TotEng   =     -3280.2440 KinEng   =       665.0380 Temp     =       308.1581 
PotEng   =     -3945.2820 E_bond   =         0.8615 E_angle  =         1.7815 
E_dihed  =         0.0000 E_impro  =         0.0000 E_vdwl   =       750.6249 
E_coul   =     27030.0927 E_long   =    -31728.6426 Press    =       436.3489 
Volume   =     10879.5756 
SHAKE stats (type/ave/delta) on step 65000
  2 0.957032 7.6377e-06
  2 104.52 0.000580247
---------------- Step    65000 ----- CPU =    367.4535 (sec) ----------------
TotEng   =     -3305.1224 KinEng   =       673.6917 Temp     =       312.1680 
PotEng   =     -3978.8141 E_bond   =         0.4093 E_angle  =         0.9140 
E_dihed  =         0.0000 E_impro  =         0.0000 E_vdwl   =       788.2694 
E_coul   =     26966.9656 E_long   =    -31735.3724 Press    =       904.5089 
Volume   =     10713.1523 
SHAKE stats (type/ave/delta) on step 70000
  2 0.957039 9.4946e-06
  2 104.52 0.000934664
---------------- Step    70000 ----- CPU =    395.3405 (sec) ----------------
TotEng   =     -3304.4359 KinEng   =       631.6323 Temp     =       292.6789 
PotEng   =     -3936.0682 E_bond   =         2.3096 E_angle  =         1.7478 
E_dihed  =         0.0000 E_impro  =         0.0000 E_vdwl   =       795.6892 
E_coul   =     26998.6782 E_long   =    -31734.4929 Press    =      1085.8897 
Volume   =     10772.6445 
SHAKE stats (type/ave/delta) on step 75000
  2 0.956998 5.15451e-06
  2 104.52 0.000434883
---------------- Step    75000 ----- CPU =    423.6666 (sec) ----------------
TotEng   =     -3326.2023 KinEng   =       647.7324 Temp     =       300.1392 
PotEng   =     -3973.9347 E_bond   =         0.1812 E_angle  =         3.6914 
E_dihed  =         0.0000 E_impro  =         0.0000 E_vdwl   =       720.0780 
E_coul   =     27034.8445 E_long   =    -31732.7299 Press    =      -359.2712 
Volume   =     10722.9102 
SHAKE stats (type/ave/delta) on step 80000
  2 0.956999 1.43883e-05
  2 104.52 0.00171776
---------------- Step    80000 ----- CPU =    451.5223 (sec) ----------------
TotEng   =     -3256.8348 KinEng   =       639.9466 Temp     =       296.5315 
PotEng   =     -3896.7814 E_bond   =         0.1921 E_angle  =         2.7787 
E_dihed  =         0.0000 E_impro  =         0.0000 E_vdwl   =       750.2195 
E_coul   =     27081.2496 E_long   =    -31731.2212 Press    =       -84.5377 
Volume   =     11316.9825 
SHAKE stats (type/ave/delta) on step 85000
  2 0.957054 6.23318e-06
  2 104.52 0.000431146
---------------- Step    85000 ----- CPU =    479.9456 (sec) ----------------
TotEng   =     -3240.9687 KinEng   =       662.2927 Temp     =       306.8860 
PotEng   =     -3903.2614 E_bond   =         0.1305 E_angle  =         1.6732 
E_dihed  =         0.0000 E_impro  =         0.0000 E_vdwl   =       748.5556 
E_coul   =     27077.7420 E_long   =    -31731.3627 Press    =       630.0286 
Volume   =     10739.4729 
SHAKE stats (type/ave/delta) on step 90000
  2 0.957014 6.42672e-06
  2 104.52 0.000519107
---------------- Step    90000 ----- CPU =    508.4890 (sec) ----------------
TotEng   =     -3241.8388 KinEng   =       655.5774 Temp     =       303.7743 
PotEng   =     -3897.4161 E_bond   =         0.1431 E_angle  =         2.3593 
E_dihed  =         0.0000 E_impro  =         0.0000 E_vdwl   =       733.6701 
E_coul   =     27100.6965 E_long   =    -31734.2852 Press    =       237.4185 
Volume   =     10995.3222 
SHAKE stats (type/ave/delta) on step 95000
  2 0.95699 6.84595e-06
  2 104.52 0.000512782
---------------- Step    95000 ----- CPU =    537.3460 (sec) ----------------
TotEng   =     -3268.3035 KinEng   =       628.2405 Temp     =       291.1073 
PotEng   =     -3896.5440 E_bond   =         0.4785 E_angle  =         1.2071 
E_dihed  =         0.0000 E_impro  =         0.0000 E_vdwl   =       733.9630 
E_coul   =     27099.7217 E_long   =    -31731.9143 Press    =      -207.7811 
Volume   =     11034.1187 
SHAKE stats (type/ave/delta) on step 100000
  2 0.956994 1.48055e-05
  2 104.52 0.00128452
---------------- Step   100000 ----- CPU =    565.3870 (sec) ----------------
TotEng   =     -3301.1632 KinEng   =       700.0424 Temp     =       324.3780 
PotEng   =     -4001.2056 E_bond   =         0.0713 E_angle  =         0.4862 
E_dihed  =         0.0000 E_impro  =         0.0000 E_vdwl   =       716.4169 
E_coul   =     27016.7425 E_long   =    -31734.9224 Press    =      -365.3809 
Volume   =     10658.7485 
SHAKE stats (type/ave/delta) on step 105000
  2 0.956955 5.84762e-06
  2 104.52 0.000450652
---------------- Step   105000 ----- CPU =    594.9246 (sec) ----------------
TotEng   =     -3248.0192 KinEng   =       653.2152 Temp     =       302.6798 
PotEng   =     -3901.2344 E_bond   =         0.2115 E_angle  =         1.7644 
E_dihed  =         0.0000 E_impro  =         0.0000 E_vdwl   =       732.7508 
E_coul   =     27096.0874 E_long   =    -31732.0485 Press    =       100.2146 
Volume   =     10925.2871 
SHAKE stats (type/ave/delta) on step 110000
  2 0.95702 5.63842e-06
  2 104.52 0.000427217
---------------- Step   110000 ----- CPU =    623.5132 (sec) ----------------
TotEng   =     -3320.4185 KinEng   =       653.8244 Temp     =       302.9621 
PotEng   =     -3974.2430 E_bond   =         0.4809 E_angle  =         0.4929 
E_dihed  =         0.0000 E_impro  =         0.0000 E_vdwl   =       707.7250 
E_coul   =     27050.2466 E_long   =    -31733.1884 Press    =      -964.8886 
Volume   =     10898.6452 
SHAKE stats (type/ave/delta) on step 115000
  2 0.956985 1.5154e-05
  2 104.52 0.000997038
---------------- Step   115000 ----- CPU =    651.8357 (sec) ----------------
TotEng   =     -3303.1503 KinEng   =       653.8624 Temp     =       302.9797 
PotEng   =     -3957.0126 E_bond   =         0.2348 E_angle  =         0.7851 
E_dihed  =         0.0000 E_impro  =         0.0000 E_vdwl   =       715.3164 
E_coul   =     27060.9331 E_long   =    -31734.2820 Press    =      -501.1069 
Volume   =     10834.9111 
SHAKE stats (type/ave/delta) on step 120000
  2 0.957019 9.01584e-06
  2 104.52 0.000683573
---------------- Step   120000 ----- CPU =    681.0223 (sec) ----------------
TotEng   =     -3250.5624 KinEng   =       648.1615 Temp     =       300.3381 
PotEng   =     -3898.7239 E_bond   =         0.3691 E_angle  =         1.6002 
E_dihed  =         0.0000 E_impro  =         0.0000 E_vdwl   =       745.1976 
E_coul   =     27081.2659 E_long   =    -31727.1567 Press    =       339.2135 
Volume   =     10986.9741 
SHAKE stats (type/ave/delta) on step 125000
  2 0.95702 8.36237e-06
  2 104.52 0.000603216
---------------- Step   125000 ----- CPU =    709.5553 (sec) ----------------
TotEng   =     -3339.9924 KinEng   =       622.4330 Temp     =       288.4162 
PotEng   =     -3962.4254 E_bond   =         0.2909 E_angle  =         1.4765 
E_dihed  =         0.0000 E_impro  =         0.0000 E_vdwl   =       769.2538 
E_coul   =     26999.4894 E_long   =    -31732.9360 Press    =      -177.9290 
Volume   =     11180.1571 
SHAKE stats (type/ave/delta) on step 130000
  2 0.956972 5.07305e-06
  2 104.52 0.000410091
---------------- Step   130000 ----- CPU =    736.4727 (sec) ----------------
TotEng   =     -3302.4193 KinEng   =       634.6799 Temp     =       294.0911 
PotEng   =     -3937.0992 E_bond   =         0.4913 E_angle  =         1.2623 
E_dihed  =         0.0000 E_impro  =         0.0000 E_vdwl   =       718.9988 
E_coul   =     27075.4750 E_long   =    -31733.3266 Press    =      -516.0707 
Volume   =     11011.5240 
SHAKE stats (type/ave/delta) on step 135000
  2 0.957039 5.55372e-06
  2 104.52 0.000443122
---------------- Step   135000 ----- CPU =    764.4013 (sec) ----------------
TotEng   =     -3282.5729 KinEng   =       614.7688 Temp     =       284.8649 
PotEng   =     -3897.3417 E_bond   =         0.0257 E_angle  =         0.7953 
E_dihed  =         0.0000 E_impro  =         0.0000 E_vdwl   =       688.9556 
E_coul   =     27139.4510 E_long   =    -31726.5692 Press    =      -862.3314 
Volume   =     11056.5465 
SHAKE stats (type/ave/delta) on step 140000
  2 0.957061 7.57078e-06
  2 104.52 0.000522879
---------------- Step   140000 ----- CPU =    792.4533 (sec) ----------------
TotEng   =     -3267.0526 KinEng   =       636.7144 Temp     =       295.0338 
PotEng   =     -3903.7670 E_bond   =         0.2653 E_angle  =         0.4153 
E_dihed  =         0.0000 E_impro  =         0.0000 E_vdwl   =       703.9778 
E_coul   =     27124.2321 E_long   =    -31732.6575 Press    =      -353.2304 
Volume   =     10825.2537 
SHAKE stats (type/ave/delta) on step 145000
  2 0.957005 4.84418e-06
  2 104.52 0.000422178
---------------- Step   145000 ----- CPU =    819.8394 (sec) ----------------
TotEng   =     -3310.5716 KinEng   =       642.3674 Temp     =       297.6532 
PotEng   =     -3952.9389 E_bond   =         0.2587 E_angle  =         1.3140 
E_dihed  =         0.0000 E_impro  =         0.0000 E_vdwl   =       746.2995 
E_coul   =     27034.2167 E_long   =    -31735.0279 Press    =        32.3651 
Volume   =     10992.6297 
SHAKE stats (type/ave/delta) on step 150000
  2 0.956992 5.83285e-06
  2 104.52 0.000428743
---------------- Step   150000 ----- CPU =    846.8261 (sec) ----------------
TotEng   =     -3229.7022 KinEng   =       645.3166 Temp     =       299.0198 
PotEng   =     -3875.0188 E_bond   =         0.1345 E_angle  =         0.9843 
E_dihed  =         0.0000 E_impro  =         0.0000 E_vdwl   =       697.6337 
E_coul   =     27157.1599 E_long   =    -31730.9312 Press    =      -366.1757 
Volume   =     11052.4041 
SHAKE stats (type/ave/delta) on step 155000
  2 0.957006 8.5545e-06
  2 104.52 0.000947215
---------------- Step   155000 ----- CPU =    875.2893 (sec) ----------------
TotEng   =     -3272.4428 KinEng   =       659.1943 Temp     =       305.4503 
PotEng   =     -3931.6372 E_bond   =         0.5026 E_angle  =         2.2561 
E_dihed  =         0.0000 E_impro  =         0.0000 E_vdwl   =       687.1854 
E_coul   =     27108.7125 E_long   =    -31730.2938 Press    =     -1179.4878 
Volume   =     10980.0977 
SHAKE stats (type/ave/delta) on step 160000
  2 0.956995 5.59404e-06
  2 104.52 0.000623188
---------------- Step   160000 ----- CPU =    903.6807 (sec) ----------------
TotEng   =     -3278.7887 KinEng   =       640.8764 Temp     =       296.9624 
PotEng   =     -3919.6651 E_bond   =         0.5520 E_angle  =         1.6850 
E_dihed  =         0.0000 E_impro  =         0.0000 E_vdwl   =       744.2077 
E_coul   =     27066.3556 E_long   =    -31732.4655 Press    =       267.9510 
Volume   =     10831.5351 
SHAKE stats (type/ave/delta) on step 165000
  2 0.956971 8.68091e-06
  2 104.52 0.000978967
---------------- Step   165000 ----- CPU =    932.8387 (sec) ----------------
TotEng   =     -3298.8107 KinEng   =       628.4509 Temp     =       291.2048 
PotEng   =     -3927.2616 E_bond   =         0.3922 E_angle  =         2.2482 
E_dihed  =         0.0000 E_impro  =         0.0000 E_vdwl   =       710.1162 
E_coul   =     27094.3339 E_long   =    -31734.3522 Press    =      -376.7993 
Volume   =     10792.8962 
SHAKE stats (type/ave/delta) on step 170000
  2 0.957023 6.11304e-06
  2 104.52 0.000386932
---------------- Step   170000 ----- CPU =    962.6883 (sec) ----------------
TotEng   =     -3251.9258 KinEng   =       663.9192 Temp     =       307.6397 
PotEng   =     -3915.8450 E_bond   =         0.1596 E_angle  =         1.5718 
E_dihed  =         0.0000 E_impro  =         0.0000 E_vdwl   =       857.9680 
E_coul   =     26953.7769 E_long   =    -31729.3213 Press    =      2881.0233 
Volume   =     10744.0656 
SHAKE stats (type/ave/delta) on step 175000
  2 0.957051 5.91459e-06
  2 104.52 0.000692797
---------------- Step   175000 ----- CPU =    991.2069 (sec) ----------------
TotEng   =     -3280.4539 KinEng   =       665.1915 Temp     =       308.2292 
PotEng   =     -3945.6454 E_bond   =         0.2335 E_angle  =         1.3762 
E_dihed  =         0.0000 E_impro  =         0.0000 E_vdwl   =       736.0330 
E_coul   =     27050.6661 E_long   =    -31733.9542 Press    =        -4.3900 
Volume   =     10824.7003 
SHAKE stats (type/ave/delta) on step 180000
  2 0.957041 2.54211e-05
  2 104.52 0.00109888
---------------- Step   180000 ----- CPU =   1019.4128 (sec) ----------------
TotEng   =     -3313.5770 KinEng   =       675.9747 Temp     =       313.2258 
PotEng   =     -3989.5517 E_bond   =         0.3018 E_angle  =         1.6649 
E_dihed  =         0.0000 E_impro  =         0.0000 E_vdwl   =       802.5252 
E_coul   =     26937.0001 E_long   =    -31731.0437 Press    =       965.4448 
Volume   =     10840.1262 
SHAKE stats (type/ave/delta) on step 185000
  2 0.956995 5.60907e-06
  2 104.52 0.00047726
---------------- Step   185000 ----- CPU =   1047.8261 (sec) ----------------
TotEng   =     -3248.2683 KinEng   =       642.7012 Temp     =       297.8079 
PotEng   =     -3890.9695 E_bond   =         0.5399 E_angle  =         1.1703 
E_dihed  =         0.0000 E_impro  =         0.0000 E_vdwl   =       715.1742 
E_coul   =     27124.2148 E_long   =    -31732.0687 Press    =      -302.6061 
Volume   =     11101.4809 
SHAKE stats (type/ave/delta) on step 190000
  2 0.95706 8.89215e-06
  2 104.52 0.000722756
---------------- Step   190000 ----- CPU =   1075.7380 (sec) ----------------
TotEng   =     -3295.7639 KinEng   =       673.9711 Temp     =       312.2974 
PotEng   =     -3969.7351 E_bond   =         0.0270 E_angle  =         1.7315 
E_dihed  =         0.0000 E_impro  =         0.0000 E_vdwl   =       764.0613 
E_coul   =     26996.3229 E_long   =    -31731.8778 Press    =       222.7730 
Volume   =     11000.1312 
SHAKE stats (type/ave/delta) on step 195000
  2 0.957025 5.95686e-06
  2 104.52 0.000491109
---------------- Step   195000 ----- CPU =   1103.9217 (sec) ----------------
TotEng   =     -3301.9447 KinEng   =       645.6306 Temp     =       299.1653 
PotEng   =     -3947.5754 E_bond   =         1.6369 E_angle  =         1.1031 
E_dihed  =         0.0000 E_impro  =         0.0000 E_vdwl   =       785.3460 
E_coul   =     26999.0756 E_long   =    -31734.7370 Press    =      1081.8859 
Volume   =     10908.6295 
SHAKE stats (type/ave/delta) on step 200000
  2 0.956976 4.43586e-06
  2 104.52 0.00041709
---------------- Step   200000 ----- CPU =   1132.0250 (sec) ----------------
TotEng   =     -3266.9467 KinEng   =       671.2693 Temp     =       311.0455 
PotEng   =     -3938.2161 E_bond   =         0.2115 E_angle  =         0.7256 
E_dihed  =         0.0000 E_impro  =         0.0000 E_vdwl   =       733.1155 
E_coul   =     27058.7886 E_long   =    -31731.0573 Press    =       312.3642 
Volume   =     10766.9236 
SHAKE stats (type/ave/delta) on step 205000
  2 0.956938 4.37825e-06
  2 104.52 0.000413793
---------------- Step   205000 ----- CPU =   1160.3366 (sec) ----------------
TotEng   =     -3328.0462 KinEng   =       639.4330 Temp     =       296.2935 
PotEng   =     -3967.4792 E_bond   =         0.1686 E_angle  =         1.7077 
E_dihed  =         0.0000 E_impro  =         0.0000 E_vdwl   =       770.2777 
E_coul   =     26990.6572 E_long   =    -31730.2904 Press    =       813.8227 
Volume   =     10673.3430 
SHAKE stats (type/ave/delta) on step 210000
  2 0.956967 6.55916e-06
  2 104.52 0.000518315
---------------- Step   210000 ----- CPU =   1188.7654 (sec) ----------------
TotEng   =     -3245.9427 KinEng   =       652.9207 Temp     =       302.5433 
PotEng   =     -3898.8634 E_bond   =         0.4834 E_angle  =         1.7361 
E_dihed  =         0.0000 E_impro  =         0.0000 E_vdwl   =       701.5991 
E_coul   =     27124.3751 E_long   =    -31727.0570 Press    =      -558.2549 
Volume   =     10878.3653 
SHAKE stats (type/ave/delta) on step 215000
  2 0.957013 4.45659e-06
  2 104.52 0.0004859
---------------- Step   215000 ----- CPU =   1217.6727 (sec) ----------------
TotEng   =     -3309.3296 KinEng   =       680.7765 Temp     =       315.4508 
PotEng   =     -3990.1060 E_bond   =         0.2891 E_angle  =         1.8568 
E_dihed  =         0.0000 E_impro  =         0.0000 E_vdwl   =       699.2392 
E_coul   =     27042.4056 E_long   =    -31733.8968 Press    =      -971.6464 
Volume   =     10754.6783 
SHAKE stats (type/ave/delta) on step 220000
  2 0.956984 4.15696e-06
  2 104.52 0.000408704
---------------- Step   220000 ----- CPU =   1246.3530 (sec) ----------------
TotEng   =     -3211.9887 KinEng   =       658.2335 Temp     =       305.0051 
PotEng   =     -3870.2222 E_bond   =         0.4782 E_angle  =         1.5985 
E_dihed  =         0.0000 E_impro  =         0.0000 E_vdwl   =       730.3021 
E_coul   =     27123.5039 E_long   =    -31726.1050 Press    =       308.4755 
Volume   =     11003.9774 
SHAKE stats (type/ave/delta) on step 225000
  2 0.956989 9.59441e-06
  2 104.52 0.000788117
---------------- Step   225000 ----- CPU =   1275.1160 (sec) ----------------
TotEng   =     -3277.8961 KinEng   =       624.8507 Temp     =       289.5365 
PotEng   =     -3902.7467 E_bond   =         0.0628 E_angle  =         3.3899 
E_dihed  =         0.0000 E_impro  =         0.0000 E_vdwl   =       759.5877 
E_coul   =     27064.6693 E_long   =    -31730.4564 Press    =       285.7150 
Volume   =     11077.5867 
SHAKE stats (type/ave/delta) on step 230000
  2 0.956997 7.21806e-06
  2 104.52 0.000999544
---------------- Step   230000 ----- CPU =   1304.1693 (sec) ----------------
TotEng   =     -3322.2505 KinEng   =       619.6076 Temp     =       287.1071 
PotEng   =     -3941.8581 E_bond   =         0.2945 E_angle  =         3.2788 
E_dihed  =         0.0000 E_impro  =         0.0000 E_vdwl   =       751.2319 
E_coul   =     27038.8050 E_long   =    -31735.4683 Press    =        22.7003 
Volume   =     10941.0778 
SHAKE stats (type/ave/delta) on step 235000
  2 0.956983 6.01349e-06
  2 104.52 0.000555682
---------------- Step   235000 ----- CPU =   1333.2226 (sec) ----------------
TotEng   =     -3281.1689 KinEng   =       625.3897 Temp     =       289.7863 
PotEng   =     -3906.5586 E_bond   =         0.5285 E_angle  =         2.3069 
E_dihed  =         0.0000 E_impro  =         0.0000 E_vdwl   =       746.9525 
E_coul   =     27077.5800 E_long   =    -31733.9265 Press    =       359.3098 
Volume   =     10872.6564 
SHAKE stats (type/ave/delta) on step 240000
  2 0.957037 5.69185e-06
  2 104.52 0.000486572
---------------- Step   240000 ----- CPU =   1362.2572 (sec) ----------------
TotEng   =     -3301.8410 KinEng   =       635.7104 Temp     =       294.5686 
PotEng   =     -3937.5514 E_bond   =         0.0466 E_angle  =         1.3234 
E_dihed  =         0.0000 E_impro  =         0.0000 E_vdwl   =       726.3483 
E_coul   =     27067.0965 E_long   =    -31732.3663 Press    =      -656.5443 
Volume   =     11039.9143 
SHAKE stats (type/ave/delta) on step 245000
  2 0.956978 6.26569e-06
  2 104.52 0.000484109
---------------- Step   245000 ----- CPU =   1391.2962 (sec) ----------------
TotEng   =     -3303.8105 KinEng   =       675.7549 Temp     =       313.1240 
PotEng   =     -3979.5654 E_bond   =         0.3238 E_angle  =         1.6197 
E_dihed  =         0.0000 E_impro  =         0.0000 E_vdwl   =       775.3421 
E_coul   =     26972.7818 E_long   =    -31729.6327 Press    =       686.5142 
Volume   =     10641.8322 
SHAKE stats (type/ave/delta) on step 250000
  2 0.957013 5.09603e-06
  2 104.52 0.00039166
---------------- Step   250000 ----- CPU =   1419.8704 (sec) ----------------
TotEng   =     -3291.3419 KinEng   =       628.5823 Temp     =       291.2656 
PotEng   =     -3919.9241 E_bond   =         0.0604 E_angle  =         0.4062 
E_dihed  =         0.0000 E_impro  =         0.0000 E_vdwl   =       743.6697 
E_coul   =     27071.8235 E_long   =    -31735.8840 Press    =       546.0342 
Volume   =     10775.4870 
SHAKE stats (type/ave/delta) on step 255000
  2 0.957012 9.64279e-06
  2 104.52 0.000603266
---------------- Step   255000 ----- CPU =   1446.8524 (sec) ----------------
TotEng   =     -3312.5903 KinEng   =       672.0375 Temp     =       311.4014 
PotEng   =     -3984.6278 E_bond   =         1.4938 E_angle  =         1.5768 
E_dihed  =         0.0000 E_impro  =         0.0000 E_vdwl   =       752.3052 
E_coul   =     26993.2721 E_long   =    -31733.2758 Press    =       130.5741 
Volume   =     10848.2558 
SHAKE stats (type/ave/delta) on step 260000
  2 0.956973 1.208e-05
  2 104.52 0.000830122
---------------- Step   260000 ----- CPU =   1474.6613 (sec) ----------------
TotEng   =     -3294.2590 KinEng   =       625.3198 Temp     =       289.7539 
PotEng   =     -3919.5788 E_bond   =         0.6238 E_angle  =         1.6195 
E_dihed  =         0.0000 E_impro  =         0.0000 E_vdwl   =       735.7005 
E_coul   =     27074.8049 E_long   =    -31732.3275 Press    =       460.1133 
Volume   =     10819.1540 
SHAKE stats (type/ave/delta) on step 265000
  2 0.956981 6.31079e-06
  2 104.52 0.000483941
---------------- Step   265000 ----- CPU =   1502.1731 (sec) ----------------
TotEng   =     -3314.5044 KinEng   =       640.9283 Temp     =       296.9864 
PotEng   =     -3955.4327 E_bond   =         0.7111 E_angle  =         1.7487 
E_dihed  =         0.0000 E_impro  =         0.0000 E_vdwl   =       722.0316 
E_coul   =     27050.4850 E_long   =    -31730.4090 Press    =      -553.4197 
Volume   =     10894.9388 
SHAKE stats (type/ave/delta) on step 270000
  2 0.957013 5.02868e-06
  2 104.52 0.00045943
---------------- Step   270000 ----- CPU =   1529.5891 (sec) ----------------
TotEng   =     -3262.7132 KinEng   =       691.4846 Temp     =       320.4126 
PotEng   =     -3954.1978 E_bond   =         0.1482 E_angle  =         1.0548 
E_dihed  =         0.0000 E_impro  =         0.0000 E_vdwl   =       763.9662 
E_coul   =     27015.2281 E_long   =    -31734.5951 Press    =        61.5452 
Volume   =     11103.4155 
SHAKE stats (type/ave/delta) on step 275000
  2 0.957046 4.04228e-06
  2 104.52 0.000376881
---------------- Step   275000 ----- CPU =   1556.3142 (sec) ----------------
TotEng   =     -3241.0239 KinEng   =       662.1195 Temp     =       306.8058 
PotEng   =     -3903.1435 E_bond   =         0.3736 E_angle  =         0.7852 
E_dihed  =         0.0000 E_impro  =         0.0000 E_vdwl   =       660.1638 
E_coul   =     27167.9195 E_long   =    -31732.3856 Press    =     -1205.9003 
Volume   =     10898.1790 
SHAKE stats (type/ave/delta) on step 280000
  2 0.956959 1.00078e-05
  2 104.52 0.000788203
---------------- Step   280000 ----- CPU =   1584.7032 (sec) ----------------
TotEng   =     -3247.0413 KinEng   =       652.3271 Temp     =       302.2683 
PotEng   =     -3899.3683 E_bond   =         0.1865 E_angle  =         1.1809 
E_dihed  =         0.0000 E_impro  =         0.0000 E_vdwl   =       780.7910 
E_coul   =     27051.7995 E_long   =    -31733.3262 Press    =      1182.4118 
Volume   =     10873.7696 
SHAKE stats (type/ave/delta) on step 285000
  2 0.956973 5.52823e-06
  2 104.52 0.000405423
---------------- Step   285000 ----- CPU =   1613.8577 (sec) ----------------
TotEng   =     -3315.2373 KinEng   =       638.5115 Temp     =       295.8665 
PotEng   =     -3953.7488 E_bond   =         0.1724 E_angle  =         0.8659 
E_dihed  =         0.0000 E_impro  =         0.0000 E_vdwl   =       715.2147 
E_coul   =     27062.8421 E_long   =    -31732.8439 Press    =      -830.4325 
Volume   =     11092.2698 
SHAKE stats (type/ave/delta) on step 290000
  2 0.956962 5.75827e-06
  2 104.52 0.000582343
---------------- Step   290000 ----- CPU =   1642.0276 (sec) ----------------
TotEng   =     -3287.7764 KinEng   =       635.3566 Temp     =       294.4046 
PotEng   =     -3923.1330 E_bond   =         0.1912 E_angle  =         0.5962 
E_dihed  =         0.0000 E_impro  =         0.0000 E_vdwl   =       731.3128 
E_coul   =     27073.5393 E_long   =    -31728.7724 Press    =      -123.9800 
Volume   =     10947.2514 
SHAKE stats (type/ave/delta) on step 295000
  2 0.956951 5.28517e-06
  2 104.52 0.000458519
---------------- Step   295000 ----- CPU =   1670.1634 (sec) ----------------
TotEng   =     -3267.9150 KinEng   =       648.2264 Temp     =       300.3681 
PotEng   =     -3916.1414 E_bond   =         0.0751 E_angle  =         1.5135 
E_dihed  =         0.0000 E_impro  =         0.0000 E_vdwl   =       735.7999 
E_coul   =     27078.5638 E_long   =    -31732.0937 Press    =       349.5051 
Volume   =     10916.6155 
SHAKE stats (type/ave/delta) on step 300000
  2 0.95704 4.80991e-06
  2 104.52 0.000503499
---------------- Step   300000 ----- CPU =   1698.6051 (sec) ----------------
TotEng   =     -3253.9385 KinEng   =       667.8193 Temp     =       309.4469 
PotEng   =     -3921.7578 E_bond   =         0.8535 E_angle  =         0.4529 
E_dihed  =         0.0000 E_impro  =         0.0000 E_vdwl   =       706.3799 
E_coul   =     27100.5827 E_long   =    -31730.0268 Press    =      -496.8534 
Volume   =     11083.3263 
SHAKE stats (type/ave/delta) on step 305000
  2 0.956986 9.93146e-06
  2 104.52 0.000835741
---------------- Step   305000 ----- CPU =   1727.5625 (sec) ----------------
TotEng   =     -3230.8046 KinEng   =       677.7343 Temp     =       314.0412 
PotEng   =     -3908.5390 E_bond   =         0.3941 E_angle  =         0.7034 
E_dihed  =         0.0000 E_impro  =         0.0000 E_vdwl   =       777.0844 
E_coul   =     27044.8153 E_long   =    -31731.5361 Press    =      1394.2301 
Volume   =     10715.8411 
SHAKE stats (type/ave/delta) on step 310000
  2 0.957011 1.05163e-05
  2 104.52 0.00104564
---------------- Step   310000 ----- CPU =   1755.9764 (sec) ----------------
TotEng   =     -3265.9409 KinEng   =       662.0520 Temp     =       306.7745 
PotEng   =     -3927.9929 E_bond   =         0.1310 E_angle  =         0.3590 
E_dihed  =         0.0000 E_impro  =         0.0000 E_vdwl   =       796.8010 
E_coul   =     27005.0833 E_long   =    -31730.3673 Press    =      1309.6742 
Volume   =     10962.9829 
SHAKE stats (type/ave/delta) on step 315000
  2 0.956959 6.58497e-06
  2 104.52 0.000514161
---------------- Step   315000 ----- CPU =   1785.0038 (sec) ----------------
TotEng   =     -3292.1867 KinEng   =       627.1779 Temp     =       290.6149 
PotEng   =     -3919.3646 E_bond   =         0.3828 E_angle  =         1.7959 
E_dihed  =         0.0000 E_impro  =         0.0000 E_vdwl   =       770.2751 
E_coul   =     27040.0695 E_long   =    -31731.8878 Press    =       223.5237 
Volume   =     11208.2672 
SHAKE stats (type/ave/delta) on step 320000
  2 0.956931 7.62609e-06
  2 104.52 0.000453527
---------------- Step   320000 ----- CPU =   1813.9089 (sec) ----------------
TotEng   =     -3268.7423 KinEng   =       653.6547 Temp     =       302.8835 
PotEng   =     -3922.3971 E_bond   =         0.3111 E_angle  =         1.9706 
E_dihed  =         0.0000 E_impro  =         0.0000 E_vdwl   =       780.7058 
E_coul   =     27025.0539 E_long   =    -31730.4384 Press    =      1243.7797 
Volume   =     10766.8872 
SHAKE stats (type/ave/delta) on step 325000
  2 0.957032 7.13331e-06
  2 104.52 0.000753268
---------------- Step   325000 ----- CPU =   1843.3729 (sec) ----------------
TotEng   =     -3282.0920 KinEng   =       653.3238 Temp     =       302.7301 
PotEng   =     -3935.4158 E_bond   =         0.1277 E_angle  =         1.5075 
E_dihed  =         0.0000 E_impro  =         0.0000 E_vdwl   =       742.5706 
E_coul   =     27054.0092 E_long   =    -31733.6309 Press    =       -93.8946 
Volume   =     10952.9577 
SHAKE stats (type/ave/delta) on step 330000
  2 0.957005 4.27279e-06
  2 104.52 0.000393531
---------------- Step   330000 ----- CPU =   1872.2450 (sec) ----------------
TotEng   =     -3316.4736 KinEng   =       645.6090 Temp     =       299.1553 
PotEng   =     -3962.0826 E_bond   =         0.0898 E_angle  =         1.8966 
E_dihed  =         0.0000 E_impro  =         0.0000 E_vdwl   =       754.5834 
E_coul   =     27015.9740 E_long   =    -31734.6264 Press    =       402.7676 
Volume   =     10619.7275 
SHAKE stats (type/ave/delta) on step 335000
  2 0.95708 4.68664e-06
  2 104.52 0.000361859
---------------- Step   335000 ----- CPU =   1900.9939 (sec) ----------------
TotEng   =     -3277.6509 KinEng   =       659.9781 Temp     =       305.8135 
PotEng   =     -3937.6290 E_bond   =         0.6074 E_angle  =         1.8373 
E_dihed  =         0.0000 E_impro  =         0.0000 E_vdwl   =       720.4977 
E_coul   =     27075.2924 E_long   =    -31735.8637 Press    =      -234.2624 
Volume   =     10922.7730 
SHAKE stats (type/ave/delta) on step 340000
  2 0.957 1.31481e-05
  2 104.52 0.00177151
---------------- Step   340000 ----- CPU =   1929.5657 (sec) ----------------
TotEng   =     -3273.3596 KinEng   =       647.5055 Temp     =       300.0341 
PotEng   =     -3920.8652 E_bond   =         0.1809 E_angle  =         2.1465 
E_dihed  =         0.0000 E_impro  =         0.0000 E_vdwl   =       751.7314 
E_coul   =     27056.6737 E_long   =    -31731.5977 Press    =       692.8101 
Volume   =     10752.3993 
SHAKE stats (type/ave/delta) on step 345000
  2 0.95702 1.4534e-05
  2 104.52 0.000907932
---------------- Step   345000 ----- CPU =   1957.4237 (sec) ----------------
TotEng   =     -3257.7502 KinEng   =       648.0021 Temp     =       300.2642 
PotEng   =     -3905.7524 E_bond   =         0.0987 E_angle  =         0.3231 
E_dihed  =         0.0000 E_impro  =         0.0000 E_vdwl   =       713.7658 
E_coul   =     27111.6520 E_long   =    -31731.5919 Press    =      -256.0559 
Volume   =     11025.8710 
SHAKE stats (type/ave/delta) on step 350000
  2 0.956946 1.02669e-05
  2 104.52 0.00126959
---------------- Step   350000 ----- CPU =   1985.7336 (sec) ----------------
TotEng   =     -3282.5552 KinEng   =       651.8153 Temp     =       302.0311 
PotEng   =     -3934.3704 E_bond   =         0.7067 E_angle  =         0.8524 
E_dihed  =         0.0000 E_impro  =         0.0000 E_vdwl   =       721.5834 
E_coul   =     27076.6280 E_long   =    -31734.1410 Press    =      -429.3323 
Volume   =     10947.3680 
SHAKE stats (type/ave/delta) on step 355000
  2 0.956957 8.36966e-06
  2 104.52 0.000449902
---------------- Step   355000 ----- CPU =   2014.5538 (sec) ----------------
TotEng   =     -3329.5183 KinEng   =       644.5225 Temp     =       298.6519 
PotEng   =     -3974.0408 E_bond   =         0.6529 E_angle  =         0.4774 
E_dihed  =         0.0000 E_impro  =         0.0000 E_vdwl   =       732.9488 
E_coul   =     27026.4537 E_long   =    -31734.5736 Press    =      -840.4052 
Volume   =     11112.0020 
SHAKE stats (type/ave/delta) on step 360000
  2 0.956996 2.31566e-05
  2 104.52 0.00203541
---------------- Step   360000 ----- CPU =   2043.0649 (sec) ----------------
TotEng   =     -3266.9461 KinEng   =       647.9020 Temp     =       300.2178 
PotEng   =     -3914.8480 E_bond   =         0.5627 E_angle  =         0.4533 
E_dihed  =         0.0000 E_impro  =         0.0000 E_vdwl   =       776.9403 
E_coul   =     27038.8988 E_long   =    -31731.7032 Press    =       943.8052 
Volume   =     10864.5104 
SHAKE stats (type/ave/delta) on step 365000
  2 0.957014 7.14437e-06
  2 104.52 0.000508654
---------------- Step   365000 ----- CPU =   2071.2952 (sec) ----------------
TotEng   =     -3322.2926 KinEng   =       648.9796 Temp     =       300.7172 
PotEng   =     -3971.2723 E_bond   =         0.1989 E_angle  =         1.3337 
E_dihed  =         0.0000 E_impro  =         0.0000 E_vdwl   =       783.3502 
E_coul   =     26976.9760 E_long   =    -31733.1310 Press    =       861.8903 
Volume   =     10812.4732 
SHAKE stats (type/ave/delta) on step 370000
  2 0.95699 1.25279e-05
  2 104.52 0.00100717
---------------- Step   370000 ----- CPU =   2099.3297 (sec) ----------------
TotEng   =     -3277.8748 KinEng   =       642.3411 Temp     =       297.6410 
PotEng   =     -3920.2159 E_bond   =         0.0892 E_angle  =         1.0415 
E_dihed  =         0.0000 E_impro  =         0.0000 E_vdwl   =       749.9418 
E_coul   =     27058.6729 E_long   =    -31729.9613 Press    =       112.5062 
Volume   =     11069.1285 
SHAKE stats (type/ave/delta) on step 375000
  2 0.957031 1.31828e-05
  2 104.52 0.000963148
---------------- Step   375000 ----- CPU =   2127.9342 (sec) ----------------
TotEng   =     -3248.5934 KinEng   =       637.8546 Temp     =       295.5622 
PotEng   =     -3886.4480 E_bond   =         0.2023 E_angle  =         1.3690 
E_dihed  =         0.0000 E_impro  =         0.0000 E_vdwl   =       700.5262 
E_coul   =     27143.8072 E_long   =    -31732.3528 Press    =      -821.8380 
Volume   =     11173.6344 
SHAKE stats (type/ave/delta) on step 380000
  2 0.956986 1.22078e-05
  2 104.52 0.00094464
---------------- Step   380000 ----- CPU =   2154.6442 (sec) ----------------
TotEng   =     -3265.2070 KinEng   =       646.6194 Temp     =       299.6235 
PotEng   =     -3911.8264 E_bond   =         0.2951 E_angle  =         2.6919 
E_dihed  =         0.0000 E_impro  =         0.0000 E_vdwl   =       730.1892 
E_coul   =     27087.6854 E_long   =    -31732.6880 Press    =      -145.4872 
Volume   =     11087.8555 
SHAKE stats (type/ave/delta) on step 385000
  2 0.957 8.68367e-06
  2 104.52 0.000556574
---------------- Step   385000 ----- CPU =   2181.8938 (sec) ----------------
TotEng   =     -3340.8504 KinEng   =       624.2567 Temp     =       289.2613 
PotEng   =     -3965.1071 E_bond   =         0.5336 E_angle  =         2.0529 
E_dihed  =         0.0000 E_impro  =         0.0000 E_vdwl   =       760.4688 
E_coul   =     27005.8380 E_long   =    -31734.0004 Press    =       542.9497 
Volume   =     10720.8657 
SHAKE stats (type/ave/delta) on step 390000
  2 0.956971 5.3067e-06
  2 104.52 0.000390209
---------------- Step   390000 ----- CPU =   2209.1220 (sec) ----------------
TotEng   =     -3334.9484 KinEng   =       630.2856 Temp     =       292.0549 
PotEng   =     -3965.2340 E_bond   =         0.0651 E_angle  =         1.5888 
E_dihed  =         0.0000 E_impro  =         0.0000 E_vdwl   =       737.5003 
E_coul   =     27028.6337 E_long   =    -31733.0219 Press    =      -223.6712 
Volume   =     10996.9038 
SHAKE stats (type/ave/delta) on step 395000
  2 0.956964 6.12983e-06
  2 104.52 0.000533798
---------------- Step   395000 ----- CPU =   2236.8267 (sec) ----------------
TotEng   =     -3330.6700 KinEng   =       636.0405 Temp     =       294.7216 
PotEng   =     -3966.7105 E_bond   =         0.1229 E_angle  =         0.8403 
E_dihed  =         0.0000 E_impro  =         0.0000 E_vdwl   =       790.3412 
E_coul   =     26970.6949 E_long   =    -31728.7098 Press    =       181.6705 
Volume   =     11301.5094 
SHAKE stats (type/ave/delta) on step 400000
  2 0.957011 5.41311e-06
  2 104.52 0.000378392
---------------- Step   400000 ----- CPU =   2264.4450 (sec) ----------------
TotEng   =     -3334.8878 KinEng   =       672.9109 Temp     =       311.8062 
PotEng   =     -4007.7987 E_bond   =         0.0692 E_angle  =         0.6168 
E_dihed  =         0.0000 E_impro  =         0.0000 E_vdwl   =       787.8684 
E_coul   =     26936.9645 E_long   =    -31733.3177 Press    =       228.1734 
Volume   =     11017.5304 
SHAKE stats (type/ave/delta) on step 405000
  2 0.956998 5.62563e-06
  2 104.52 0.000499814
---------------- Step   405000 ----- CPU =   2292.9282 (sec) ----------------
TotEng   =     -3276.7370 KinEng   =       667.5936 Temp     =       309.3423 
PotEng   =     -3944.3305 E_bond   =         0.2409 E_angle  =         0.7586 
E_dihed  =         0.0000 E_impro  =         0.0000 E_vdwl   =       765.3224 
E_coul   =     27019.7748 E_long   =    -31730.4271 Press    =       108.1731 
Volume   =     11103.1275 
SHAKE stats (type/ave/delta) on step 410000
  2 0.957024 6.57163e-06
  2 104.52 0.000516949
---------------- Step   410000 ----- CPU =   2321.4722 (sec) ----------------
TotEng   =     -3290.6589 KinEng   =       664.9134 Temp     =       308.1004 
PotEng   =     -3955.5722 E_bond   =         0.1136 E_angle  =         0.7553 
E_dihed  =         0.0000 E_impro  =         0.0000 E_vdwl   =       725.3855 
E_coul   =     27050.5258 E_long   =    -31732.3524 Press    =      -519.6287 
Volume   =     10892.2806 
SHAKE stats (type/ave/delta) on step 415000
  2 0.956993 4.75109e-06
  2 104.52 0.000411913
---------------- Step   415000 ----- CPU =   2349.6731 (sec) ----------------
TotEng   =     -3233.4751 KinEng   =       658.0831 Temp     =       304.9354 
PotEng   =     -3891.5583 E_bond   =         0.2531 E_angle  =         0.3199 
E_dihed  =         0.0000 E_impro  =         0.0000 E_vdwl   =       706.9895 
E_coul   =     27131.6682 E_long   =    -31730.7891 Press    =      -287.3484 
Volume   =     11231.6029 
SHAKE stats (type/ave/delta) on step 420000
  2 0.957019 4.44107e-06
  2 104.52 0.000355756
---------------- Step   420000 ----- CPU =   2378.0045 (sec) ----------------
TotEng   =     -3289.2874 KinEng   =       649.7044 Temp     =       301.0530 
PotEng   =     -3938.9918 E_bond   =         0.1597 E_angle  =         0.2523 
E_dihed  =         0.0000 E_impro  =         0.0000 E_vdwl   =       750.4555 
E_coul   =     27044.4827 E_long   =    -31734.3420 Press    =       374.1111 
Volume   =     10852.1483 
SHAKE stats (type/ave/delta) on step 425000
  2 0.956937 7.8631e-06
  2 104.52 0.000639875
---------------- Step   425000 ----- CPU =   2406.8529 (sec) ----------------
TotEng   =     -3255.2685 KinEng   =       655.6455 Temp     =       303.8059 
PotEng   =     -3910.9140 E_bond   =         0.0475 E_angle  =         0.3229 
E_dihed  =         0.0000 E_impro  =         0.0000 E_vdwl   =       663.4390 
E_coul   =     27158.7765 E_long   =    -31733.4999 Press    =     -1764.8531 
Volume   =     11262.8516 
SHAKE stats (type/ave/delta) on step 430000
  2 0.956936 5.56224e-06
  2 104.52 0.000505222
---------------- Step   430000 ----- CPU =   2435.2404 (sec) ----------------
TotEng   =     -3312.1216 KinEng   =       671.7303 Temp     =       311.2591 
PotEng   =     -3983.8519 E_bond   =         0.1634 E_angle  =         1.9061 
E_dihed  =         0.0000 E_impro  =         0.0000 E_vdwl   =       735.9917 
E_coul   =     27015.8872 E_long   =    -31737.8003 Press    =      -619.7389 
Volume   =     10947.3147 
SHAKE stats (type/ave/delta) on step 435000
  2 0.956961 4.81245e-06
  2 104.52 0.000379429
---------------- Step   435000 ----- CPU =   2464.0361 (sec) ----------------
TotEng   =     -3292.7083 KinEng   =       646.5456 Temp     =       299.5893 
PotEng   =     -3939.2539 E_bond   =         0.9116 E_angle  =         0.6861 
E_dihed  =         0.0000 E_impro  =         0.0000 E_vdwl   =       709.1536 
E_coul   =     27082.2540 E_long   =    -31732.2592 Press    =      -729.1728 
Volume   =     10792.5796 
SHAKE stats (type/ave/delta) on step 440000
  2 0.957026 6.89936e-06
  2 104.52 0.000489136
---------------- Step   440000 ----- CPU =   2492.5955 (sec) ----------------
TotEng   =     -3277.6214 KinEng   =       657.5009 Temp     =       304.6656 
PotEng   =     -3935.1222 E_bond   =         0.1123 E_angle  =         2.4044 
E_dihed  =         0.0000 E_impro  =         0.0000 E_vdwl   =       774.8274 
E_coul   =     27023.0265 E_long   =    -31735.4928 Press    =       931.1745 
Volume   =     10841.1917 
SHAKE stats (type/ave/delta) on step 445000
  2 0.956988 4.62292e-06
  2 104.52 0.000440435
---------------- Step   445000 ----- CPU =   2521.1073 (sec) ----------------
TotEng   =     -3255.1829 KinEng   =       658.5528 Temp     =       305.1531 
PotEng   =     -3913.7357 E_bond   =         0.3329 E_angle  =         1.7571 
E_dihed  =         0.0000 E_impro  =         0.0000 E_vdwl   =       694.5173 
E_coul   =     27119.6263 E_long   =    -31729.9692 Press    =      -445.1979 
Volume   =     10877.9623 
SHAKE stats (type/ave/delta) on step 450000
  2 0.956961 9.53404e-06
  2 104.52 0.00101996
---------------- Step   450000 ----- CPU =   2550.3827 (sec) ----------------
TotEng   =     -3261.4175 KinEng   =       642.4199 Temp     =       297.6776 
PotEng   =     -3903.8374 E_bond   =         0.7630 E_angle  =         0.3340 
E_dihed  =         0.0000 E_impro  =         0.0000 E_vdwl   =       803.7047 
E_coul   =     27018.4720 E_long   =    -31727.1111 Press    =      1784.2363 
Volume   =     10898.1709 
SHAKE stats (type/ave/delta) on step 455000
  2 0.956951 7.17974e-06
  2 104.52 0.000564094
---------------- Step   455000 ----- CPU =   2578.5604 (sec) ----------------
TotEng   =     -3206.5170 KinEng   =       657.8286 Temp     =       304.8175 
PotEng   =     -3864.3457 E_bond   =         0.4271 E_angle  =         1.0498 
E_dihed  =         0.0000 E_impro  =         0.0000 E_vdwl   =       717.0168 
E_coul   =     27148.0526 E_long   =    -31730.8920 Press    =      -224.1577 
Volume   =     11149.9780 
SHAKE stats (type/ave/delta) on step 460000
  2 0.957069 5.10091e-06
  2 104.52 0.000438299
---------------- Step   460000 ----- CPU =   2606.2117 (sec) ----------------
TotEng   =     -3288.7863 KinEng   =       631.7786 Temp     =       292.7467 
PotEng   =     -3920.5648 E_bond   =         0.1450 E_angle  =         1.1028 
E_dihed  =         0.0000 E_impro  =         0.0000 E_vdwl   =       723.1544 
E_coul   =     27088.5016 E_long   =    -31733.4686 Press    =      -197.8349 
Volume   =     10898.3118 
SHAKE stats (type/ave/delta) on step 465000
  2 0.956904 6.12572e-06
  2 104.52 0.000585333
---------------- Step   465000 ----- CPU =   2633.4504 (sec) ----------------
TotEng   =     -3323.1547 KinEng   =       656.3366 Temp     =       304.1261 
PotEng   =     -3979.4912 E_bond   =         0.2411 E_angle  =         1.2947 
E_dihed  =         0.0000 E_impro  =         0.0000 E_vdwl   =       702.6463 
E_coul   =     27050.0452 E_long   =    -31733.7185 Press    =      -962.6511 
Volume   =     10957.7472 
SHAKE stats (type/ave/delta) on step 470000
  2 0.956984 6.70147e-06
  2 104.52 0.000449787
---------------- Step   470000 ----- CPU =   2661.5511 (sec) ----------------
TotEng   =     -3296.7514 KinEng   =       648.7720 Temp     =       300.6209 
PotEng   =     -3945.5234 E_bond   =         0.1819 E_angle  =         0.8642 
[...]
---------------- Step  2320000 ----- CPU =  13108.5006 (sec) ----------------
TotEng   =     -3317.5066 KinEng   =       625.2807 Temp     =       289.7358 
PotEng   =     -3942.7874 E_bond   =         2.9834 E_angle  =         0.6274 
E_dihed  =         0.0000 E_impro  =         0.0000 E_vdwl   =       727.0424 
E_coul   =     27056.3683 E_long   =    -31729.8088 Press    =      -847.0095 
Volume   =     11222.2768 
SHAKE stats (type/ave/delta) on step 2325000
  2 0.957043 6.2402e-06
  2 104.52 0.000497157
---------------- Step  2325000 ----- CPU =  13136.3943 (sec) ----------------
TotEng   =     -3258.3541 KinEng   =       654.3496 Temp     =       303.2054 
PotEng   =     -3912.7038 E_bond   =         2.4277 E_angle  =         2.8199 
E_dihed  =         0.0000 E_impro  =         0.0000 E_vdwl   =       712.9639 
E_coul   =     27100.4715 E_long   =    -31731.3867 Press    =       -98.4970 
Volume   =     10847.9643 
SHAKE stats (type/ave/delta) on step 2330000
  2 0.957045 7.56259e-06
  2 104.52 0.000752206
---------------- Step  2330000 ----- CPU =  13164.9543 (sec) ----------------
TotEng   =     -3318.8528 KinEng   =       619.0655 Temp     =       286.8559 
PotEng   =     -3937.9182 E_bond   =         1.3846 E_angle  =         2.5061 
E_dihed  =         0.0000 E_impro  =         0.0000 E_vdwl   =       730.7516 
E_coul   =     27059.8599 E_long   =    -31732.4203 Press    =      -329.1556 
Volume   =     11115.0759 
SHAKE stats (type/ave/delta) on step 2335000
  2 0.957017 6.69514e-06
  2 104.52 0.000498988
---------------- Step  2335000 ----- CPU =  13193.4386 (sec) ----------------
TotEng   =     -3308.2764 KinEng   =       659.5420 Temp     =       305.6114 
PotEng   =     -3967.8185 E_bond   =         1.3752 E_angle  =         0.4060 
E_dihed  =         0.0000 E_impro  =         0.0000 E_vdwl   =       722.0272 
E_coul   =     27038.6272 E_long   =    -31730.2540 Press    =      -352.7767 
Volume   =     10949.0465 
SHAKE stats (type/ave/delta) on step 2340000
  2 0.957004 5.29232e-06
  2 104.52 0.000407345
---------------- Step  2340000 ----- CPU =  13222.2058 (sec) ----------------
TotEng   =     -3332.5977 KinEng   =       619.6256 Temp     =       287.1154 
PotEng   =     -3952.2233 E_bond   =         0.8078 E_angle  =         1.3383 
E_dihed  =         0.0000 E_impro  =         0.0000 E_vdwl   =       743.9313 
E_coul   =     27035.1679 E_long   =    -31733.4687 Press    =       500.6891 
Volume   =     10747.0905 
SHAKE stats (type/ave/delta) on step 2345000
  2 0.956995 6.5009e-06
  2 104.52 0.000543963
---------------- Step  2345000 ----- CPU =  13250.3899 (sec) ----------------
TotEng   =     -3356.7800 KinEng   =       616.7445 Temp     =       285.7804 
PotEng   =     -3973.5245 E_bond   =         2.8625 E_angle  =         2.5301 
E_dihed  =         0.0000 E_impro  =         0.0000 E_vdwl   =       761.7575 
E_coul   =     26991.9688 E_long   =    -31732.6434 Press    =      -106.6549 
Volume   =     11235.0532 
SHAKE stats (type/ave/delta) on step 2350000
  2 0.957001 7.68433e-06
  2 104.52 0.000817501
---------------- Step  2350000 ----- CPU =  13278.8345 (sec) ----------------
TotEng   =     -3258.1123 KinEng   =       616.2926 Temp     =       285.5710 
PotEng   =     -3874.4050 E_bond   =         1.7281 E_angle  =         0.9046 
E_dihed  =         0.0000 E_impro  =         0.0000 E_vdwl   =       724.1370 
E_coul   =     27130.6288 E_long   =    -31731.8036 Press    =        42.2492 
Volume   =     11261.3928 
SHAKE stats (type/ave/delta) on step 2355000
  2 0.95698 1.04532e-05
  2 104.52 0.000637921
---------------- Step  2355000 ----- CPU =  13308.3142 (sec) ----------------
TotEng   =     -3295.9500 KinEng   =       673.5021 Temp     =       312.0801 
PotEng   =     -3969.4521 E_bond   =         1.2407 E_angle  =         1.1615 
E_dihed  =         0.0000 E_impro  =         0.0000 E_vdwl   =       772.3824 
E_coul   =     26988.2949 E_long   =    -31732.5317 Press    =       132.5069 
Volume   =     11021.6146 
SHAKE stats (type/ave/delta) on step 2360000
  2 0.956978 4.81375e-06
  2 104.52 0.000653615
---------------- Step  2360000 ----- CPU =  13336.8523 (sec) ----------------
TotEng   =     -3271.6100 KinEng   =       655.5823 Temp     =       303.7766 
PotEng   =     -3927.1923 E_bond   =         1.0094 E_angle  =         2.9603 
E_dihed  =         0.0000 E_impro  =         0.0000 E_vdwl   =       732.0126 
E_coul   =     27066.1165 E_long   =    -31729.2911 Press    =        77.8897 
Volume   =     10950.2058 
SHAKE stats (type/ave/delta) on step 2365000
  2 0.957039 4.6134e-06
  2 104.52 0.000380616
---------------- Step  2365000 ----- CPU =  13364.9346 (sec) ----------------
TotEng   =     -3331.0305 KinEng   =       630.7326 Temp     =       292.2620 
PotEng   =     -3961.7631 E_bond   =         0.9442 E_angle  =         3.0574 
E_dihed  =         0.0000 E_impro  =         0.0000 E_vdwl   =       744.1136 
E_coul   =     27022.6109 E_long   =    -31732.4893 Press    =      -479.0747 
Volume   =     11134.4487 
SHAKE stats (type/ave/delta) on step 2370000
  2 0.957034 6.88599e-06
  2 104.52 0.000606437
---------------- Step  2370000 ----- CPU =  13392.9724 (sec) ----------------
TotEng   =     -3277.9200 KinEng   =       674.5756 Temp     =       312.5775 
PotEng   =     -3952.4956 E_bond   =         0.6197 E_angle  =         2.4131 
E_dihed  =         0.0000 E_impro  =         0.0000 E_vdwl   =       768.0058 
E_coul   =     27009.2834 E_long   =    -31732.8176 Press    =       501.4389 
Volume   =     10891.5943 
SHAKE stats (type/ave/delta) on step 2375000
  2 0.956978 1.49569e-05
  2 104.52 0.00112014
---------------- Step  2375000 ----- CPU =  13421.8607 (sec) ----------------
TotEng   =     -3358.3186 KinEng   =       651.7060 Temp     =       301.9805 
PotEng   =     -4010.0246 E_bond   =         2.1631 E_angle  =         4.4057 
E_dihed  =         0.0000 E_impro  =         0.0000 E_vdwl   =       729.2256 
E_coul   =     26986.4825 E_long   =    -31732.3015 Press    =      -615.4872 
Volume   =     10832.9610 
SHAKE stats (type/ave/delta) on step 2380000
  2 0.957036 5.92225e-06
  2 104.52 0.000680572
---------------- Step  2380000 ----- CPU =  13449.9788 (sec) ----------------
TotEng   =     -3320.3596 KinEng   =       660.9400 Temp     =       306.2592 
PotEng   =     -3981.2996 E_bond   =         2.3343 E_angle  =         1.0443 
E_dihed  =         0.0000 E_impro  =         0.0000 E_vdwl   =       711.6212 
E_coul   =     27034.8581 E_long   =    -31731.1575 Press    =      -625.1189 
Volume   =     10814.2192 
SHAKE stats (type/ave/delta) on step 2385000
  2 0.957026 5.83432e-06
  2 104.52 0.000494979
---------------- Step  2385000 ----- CPU =  13477.1803 (sec) ----------------
TotEng   =     -3248.7662 KinEng   =       674.7576 Temp     =       312.6619 
PotEng   =     -3923.5237 E_bond   =         0.6914 E_angle  =         1.1532 
E_dihed  =         0.0000 E_impro  =         0.0000 E_vdwl   =       718.0071 
E_coul   =     27091.4882 E_long   =    -31734.8637 Press    =       275.0792 
Volume   =     10726.9480 
SHAKE stats (type/ave/delta) on step 2390000
  2 0.956977 6.1727e-06
  2 104.52 0.00038956
---------------- Step  2390000 ----- CPU =  13504.4549 (sec) ----------------
TotEng   =     -3254.5563 KinEng   =       651.9232 Temp     =       302.0811 
PotEng   =     -3906.4796 E_bond   =         1.5161 E_angle  =         1.4673 
E_dihed  =         0.0000 E_impro  =         0.0000 E_vdwl   =       721.3924 
E_coul   =     27101.4941 E_long   =    -31732.3494 Press    =      -208.7384 
Volume   =     11111.3496 
SHAKE stats (type/ave/delta) on step 2395000
  2 0.957031 4.31346e-06
  2 104.52 0.000394191
---------------- Step  2395000 ----- CPU =  13532.8053 (sec) ----------------
TotEng   =     -3331.9230 KinEng   =       659.7749 Temp     =       305.7193 
PotEng   =     -3991.6979 E_bond   =         0.8107 E_angle  =         1.5228 
E_dihed  =         0.0000 E_impro  =         0.0000 E_vdwl   =       780.0874 
E_coul   =     26958.3636 E_long   =    -31732.4823 Press    =       802.0246 
Volume   =     10839.2917 
SHAKE stats (type/ave/delta) on step 2400000
  2 0.957005 4.80824e-06
  2 104.52 0.000421141
---------------- Step  2400000 ----- CPU =  13560.5897 (sec) ----------------
TotEng   =     -3315.6790 KinEng   =       672.0388 Temp     =       311.4020 
PotEng   =     -3987.7177 E_bond   =         0.3851 E_angle  =         0.6712 
E_dihed  =         0.0000 E_impro  =         0.0000 E_vdwl   =       708.9898 
E_coul   =     27035.8345 E_long   =    -31733.5982 Press    =      -784.9524 
Volume   =     10888.8152 
SHAKE stats (type/ave/delta) on step 2405000
  2 0.957025 4.83648e-06
  2 104.52 0.000399832
---------------- Step  2405000 ----- CPU =  13590.1545 (sec) ----------------
TotEng   =     -3242.7025 KinEng   =       655.3215 Temp     =       303.6558 
PotEng   =     -3898.0240 E_bond   =         1.7671 E_angle  =         0.9905 
E_dihed  =         0.0000 E_impro  =         0.0000 E_vdwl   =       698.4352 
E_coul   =     27131.9400 E_long   =    -31731.1568 Press    =      -706.7762 
Volume   =     10996.5073 
SHAKE stats (type/ave/delta) on step 2410000
  2 0.956991 4.65226e-06
  2 104.52 0.000504305
---------------- Step  2410000 ----- CPU =  13619.6635 (sec) ----------------
TotEng   =     -3239.3196 KinEng   =       667.8414 Temp     =       309.4571 
PotEng   =     -3907.1610 E_bond   =         2.5259 E_angle  =         0.8830 
E_dihed  =         0.0000 E_impro  =         0.0000 E_vdwl   =       794.0863 
E_coul   =     27024.5466 E_long   =    -31729.2027 Press    =      1457.7295 
Volume   =     10997.8789 
SHAKE stats (type/ave/delta) on step 2415000
  2 0.956962 7.1943e-06
  2 104.52 0.000819885
---------------- Step  2415000 ----- CPU =  13648.7193 (sec) ----------------
TotEng   =     -3343.5189 KinEng   =       629.7489 Temp     =       291.8062 
PotEng   =     -3973.2677 E_bond   =         1.9009 E_angle  =         0.8279 
E_dihed  =         0.0000 E_impro  =         0.0000 E_vdwl   =       782.5790 
E_coul   =     26977.2007 E_long   =    -31735.7762 Press    =       630.9157 
Volume   =     11025.9243 
SHAKE stats (type/ave/delta) on step 2420000
  2 0.956891 8.6098e-06
  2 104.52 0.000825497
---------------- Step  2420000 ----- CPU =  13677.7463 (sec) ----------------
TotEng   =     -3295.2111 KinEng   =       652.0720 Temp     =       302.1500 
PotEng   =     -3947.2830 E_bond   =         1.2324 E_angle  =         0.7997 
E_dihed  =         0.0000 E_impro  =         0.0000 E_vdwl   =       728.8425 
E_coul   =     27053.9022 E_long   =    -31732.0598 Press    =      -420.6838 
Volume   =     10927.6213 
SHAKE stats (type/ave/delta) on step 2425000
  2 0.957051 8.5028e-06
  2 104.52 0.00064973
---------------- Step  2425000 ----- CPU =  13705.9823 (sec) ----------------
TotEng   =     -3331.8123 KinEng   =       615.6191 Temp     =       285.2589 
PotEng   =     -3947.4314 E_bond   =         0.3821 E_angle  =         1.4896 
E_dihed  =         0.0000 E_impro  =         0.0000 E_vdwl   =       729.6844 
E_coul   =     27054.5355 E_long   =    -31733.5230 Press    =      -413.5271 
Volume   =     11013.1335 
SHAKE stats (type/ave/delta) on step 2430000
  2 0.956958 1.15702e-05
  2 104.52 0.000728527
---------------- Step  2430000 ----- CPU =  13734.3048 (sec) ----------------
TotEng   =     -3378.4943 KinEng   =       630.4869 Temp     =       292.1482 
PotEng   =     -4008.9811 E_bond   =         3.8859 E_angle  =         1.3729 
E_dihed  =         0.0000 E_impro  =         0.0000 E_vdwl   =       723.5436 
E_coul   =     26996.6645 E_long   =    -31734.4480 Press    =      -966.6374 
Volume   =     11197.4698 
SHAKE stats (type/ave/delta) on step 2435000
  2 0.957014 4.55524e-06
  2 104.52 0.000484626
---------------- Step  2435000 ----- CPU =  13763.2900 (sec) ----------------
TotEng   =     -3234.3244 KinEng   =       662.4918 Temp     =       306.9783 
PotEng   =     -3896.8161 E_bond   =         1.4874 E_angle  =         3.1709 
E_dihed  =         0.0000 E_impro  =         0.0000 E_vdwl   =       655.7753 
E_coul   =     27175.5171 E_long   =    -31732.7668 Press    =      -922.9891 
Volume   =     10865.9453 
SHAKE stats (type/ave/delta) on step 2440000
  2 0.956954 8.36934e-06
  2 104.52 0.00079089
---------------- Step  2440000 ----- CPU =  13791.7960 (sec) ----------------
TotEng   =     -3298.4534 KinEng   =       659.3142 Temp     =       305.5059 
PotEng   =     -3957.7676 E_bond   =         1.6590 E_angle  =         1.6481 
E_dihed  =         0.0000 E_impro  =         0.0000 E_vdwl   =       813.4343 
E_coul   =     26959.7077 E_long   =    -31734.2167 Press    =      1274.5468 
Volume   =     11108.6117 
SHAKE stats (type/ave/delta) on step 2445000
  2 0.956988 5.88598e-06
  2 104.52 0.000486476
---------------- Step  2445000 ----- CPU =  13821.0243 (sec) ----------------
TotEng   =     -3318.7347 KinEng   =       634.7122 Temp     =       294.1061 
PotEng   =     -3953.4469 E_bond   =         0.1645 E_angle  =         0.6428 
E_dihed  =         0.0000 E_impro  =         0.0000 E_vdwl   =       723.8134 
E_coul   =     27055.9413 E_long   =    -31734.0089 Press    =       -29.1278 
Volume   =     10865.3873 
SHAKE stats (type/ave/delta) on step 2450000
  2 0.957005 9.74287e-06
  2 104.52 0.000693584
---------------- Step  2450000 ----- CPU =  13849.8882 (sec) ----------------
TotEng   =     -3219.5184 KinEng   =       676.1838 Temp     =       313.3227 
PotEng   =     -3895.7022 E_bond   =         1.8025 E_angle  =         1.2733 
E_dihed  =         0.0000 E_impro  =         0.0000 E_vdwl   =       692.1133 
E_coul   =     27141.4313 E_long   =    -31732.3225 Press    =      -245.1262 
Volume   =     10978.5037 
SHAKE stats (type/ave/delta) on step 2455000
  2 0.956977 6.71699e-06
  2 104.52 0.000631766
---------------- Step  2455000 ----- CPU =  13878.4550 (sec) ----------------
TotEng   =     -3294.8599 KinEng   =       642.8767 Temp     =       297.8892 
PotEng   =     -3937.7366 E_bond   =         0.8781 E_angle  =         0.8460 
E_dihed  =         0.0000 E_impro  =         0.0000 E_vdwl   =       748.7849 
E_coul   =     27042.5717 E_long   =    -31730.8174 Press    =       -12.8630 
Volume   =     11151.1434 
SHAKE stats (type/ave/delta) on step 2460000
  2 0.957005 3.99213e-06
  2 104.52 0.000405764
---------------- Step  2460000 ----- CPU =  13906.9046 (sec) ----------------
TotEng   =     -3259.4764 KinEng   =       658.9916 Temp     =       305.3564 
PotEng   =     -3918.4680 E_bond   =         1.0987 E_angle  =         2.2201 
E_dihed  =         0.0000 E_impro  =         0.0000 E_vdwl   =       750.2602 
E_coul   =     27058.3168 E_long   =    -31730.3638 Press    =       266.2094 
Volume   =     11184.9064 
SHAKE stats (type/ave/delta) on step 2465000
  2 0.957076 8.17302e-06
  2 104.52 0.00111832
---------------- Step  2465000 ----- CPU =  13934.8055 (sec) ----------------
TotEng   =     -3288.8799 KinEng   =       673.1163 Temp     =       311.9013 
PotEng   =     -3961.9962 E_bond   =         1.8029 E_angle  =         1.6701 
E_dihed  =         0.0000 E_impro  =         0.0000 E_vdwl   =       768.6605 
E_coul   =     26996.4457 E_long   =    -31730.5755 Press    =       789.5946 
Volume   =     10815.0610 
SHAKE stats (type/ave/delta) on step 2470000
  2 0.956949 5.65917e-06
  2 104.52 0.000466414
---------------- Step  2470000 ----- CPU =  13962.5037 (sec) ----------------
TotEng   =     -3245.4445 KinEng   =       661.7658 Temp     =       306.6419 
PotEng   =     -3907.2104 E_bond   =         1.8250 E_angle  =         2.3177 
E_dihed  =         0.0000 E_impro  =         0.0000 E_vdwl   =       726.5574 
E_coul   =     27094.8326 E_long   =    -31732.7430 Press    =         0.8304 
Volume   =     11223.0162 
SHAKE stats (type/ave/delta) on step 2475000
  2 0.956951 6.34506e-06
  2 104.52 0.000493678
---------------- Step  2475000 ----- CPU =  13990.2560 (sec) ----------------
TotEng   =     -3288.6388 KinEng   =       660.6379 Temp     =       306.1192 
PotEng   =     -3949.2768 E_bond   =         1.0245 E_angle  =         1.6756 
E_dihed  =         0.0000 E_impro  =         0.0000 E_vdwl   =       736.1615 
E_coul   =     27041.9047 E_long   =    -31730.0430 Press    =      -257.3935 
Volume   =     11072.7224 
SHAKE stats (type/ave/delta) on step 2480000
  2 0.95698 8.08181e-06
  2 104.52 0.000907722
---------------- Step  2480000 ----- CPU =  14018.8083 (sec) ----------------
TotEng   =     -3295.3592 KinEng   =       645.5320 Temp     =       299.1196 
PotEng   =     -3940.8912 E_bond   =         2.6854 E_angle  =         1.7479 
E_dihed  =         0.0000 E_impro  =         0.0000 E_vdwl   =       701.3251 
E_coul   =     27087.4654 E_long   =    -31734.1151 Press    =      -214.2928 
Volume   =     10738.5682 
SHAKE stats (type/ave/delta) on step 2485000
  2 0.957008 1.058e-05
  2 104.52 0.000777786
---------------- Step  2485000 ----- CPU =  14047.2051 (sec) ----------------
TotEng   =     -3299.2204 KinEng   =       645.5627 Temp     =       299.1338 
PotEng   =     -3944.7830 E_bond   =         1.6195 E_angle  =         0.7115 
E_dihed  =         0.0000 E_impro  =         0.0000 E_vdwl   =       746.7852 
E_coul   =     27038.9798 E_long   =    -31732.8790 Press    =       198.8901 
Volume   =     10986.3207 
SHAKE stats (type/ave/delta) on step 2490000
  2 0.957036 5.43157e-06
  2 104.52 0.000376004
---------------- Step  2490000 ----- CPU =  14075.8752 (sec) ----------------
TotEng   =     -3274.0430 KinEng   =       663.5452 Temp     =       307.4664 
PotEng   =     -3937.5881 E_bond   =         0.6912 E_angle  =         4.2209 
E_dihed  =         0.0000 E_impro  =         0.0000 E_vdwl   =       718.8660 
E_coul   =     27073.3357 E_long   =    -31734.7019 Press    =       110.5895 
Volume   =     10744.3476 
SHAKE stats (type/ave/delta) on step 2495000
  2 0.956969 1.14858e-05
  2 104.52 0.000761301
---------------- Step  2495000 ----- CPU =  14104.3111 (sec) ----------------
TotEng   =     -3347.6632 KinEng   =       631.8797 Temp     =       292.7936 
PotEng   =     -3979.5429 E_bond   =         1.2181 E_angle  =         2.8155 
E_dihed  =         0.0000 E_impro  =         0.0000 E_vdwl   =       770.2798 
E_coul   =     26977.7635 E_long   =    -31731.6198 Press    =       114.0516 
Volume   =     11024.2105 
SHAKE stats (type/ave/delta) on step 2500000
  2 0.956997 9.50245e-06
  2 104.52 0.000643623
---------------- Step  2500000 ----- CPU =  14132.7649 (sec) ----------------
TotEng   =     -3254.4903 KinEng   =       664.4636 Temp     =       307.8919 
PotEng   =     -3918.9538 E_bond   =         3.3595 E_angle  =         1.8037 
E_dihed  =         0.0000 E_impro  =         0.0000 E_vdwl   =       710.4233 
E_coul   =     27098.9410 E_long   =    -31733.4813 Press    =      -405.6312 
Volume   =     11139.4449 
Loop time of 14132.8 on 8 procs for 2500000 steps with 1085 atoms

Pair  time (%) = 9409.33 (66.5781)
Bond  time (%) = 1.65523 (0.011712)
Kspce time (%) = 2371.24 (16.7783)
Neigh time (%) = 477.493 (3.37862)
Comm  time (%) = 632.065 (4.47233)
Outpt time (%) = 0.226416 (0.00160207)
Other time (%) = 1240.76 (8.77929)

FFT time (% of Kspce) = 264.254 (11.1441)
FFT Gflps 3d (1d only) = 5.188 34.9578

Nlocal:    135.625 ave 143 max 131 min
Histogram: 3 0 1 1 0 1 0 0 1 1
Nghost:    4288.75 ave 4339 max 4234 min
Histogram: 1 0 0 2 1 2 0 0 0 2
Neighs:    50763.5 ave 55129 max 46928 min
Histogram: 3 0 0 1 0 0 1 1 1 1

Total # of neighbors = 406108
Ave neighs/atom = 374.293
Ave special neighs/atom = 2.00922
Neighbor list builds = 197568
Dangerous builds = 22921

# write_restart restart.*.lmp
write_data data.*.lmp
PPPM initialization ...
  G vector (1/distance) = 0.285284
  grid = 15 15 15
  stencil order = 5
  estimated absolute RMS force accuracy = 0.0147925
  estimated relative force accuracy = 4.45472e-05
  using double precision FFTs
  3d grid and FFT values/proc = 2744 512
