LAMMPS data file via write_data, version 11 Nov 2013, timestep = 500000

1090 atoms
8 atom types
729 bonds
5 bond types
377 angles
6 angle types
16 dihedrals
4 dihedral types

-1.1119772992939254e+01 1.1119772992939254e+01 xlo xhi
-1.1119772992939254e+01 1.1119772992939254e+01 ylo yhi
-1.1119772992939254e+01 1.1119772992939254e+01 zlo zhi

Masses

1 12.011
2 12.011
3 1.008
4 1.008
5 15.999
6 1.008
7 1.008
8 15.999

Bond Coeffs

1 268 1.529
2 340 1.09
3 320 1.41
4 553 0.945
5 517.6 1

Angle Coeffs

1 37.5 110.7
2 50 0
3 33 107.8
4 35 109.5
5 55 108.5
6 37.95 109.47

Dihedral Coeffs

1 0 0 0.318 0
2 0 0 0 0
3 0 0 0 0
4 0 0 0.45 0

Atoms

645 213 8 -8.4799999999999998e-01 -3.3198850783504277e+00 -2.2791344023062639e+00 -3.5331095933928358e+00 0 1 2
1015 336 7 4.2399999999999999e-01 -3.2244952432268867e+00 -1.5751818838825464e+00 -3.2849822641243343e-01 -2 0 2
926 307 7 4.2399999999999999e-01 -7.1483608716526188e+00 -5.3945543197246035e+00 -5.5880392091976532e+00 1 1 -2
812 269 7 4.2399999999999999e-01 -4.6920035731482539e+00 -2.9183576882715805e+00 -4.5133326400387013e+00 2 0 0
885 293 8 -8.4799999999999998e-01 -1.9604830151582942e+00 -3.7360544494686918e+00 -7.1245184329222306e+00 -1 1 -1
5 1 3 0.0000000000000000e+00 -8.5619179274351129e+00 -4.0167882384115972e+00 -1.0271626307752003e+01 2 1 0
620 205 7 4.2399999999999999e-01 -7.6992041920876506e+00 -8.9195588919673146e+00 -7.2801953813161902e+00 0 0 0
1088 361 7 4.2399999999999999e-01 -5.1524791673188552e-01 -6.0742799291929099e+00 -4.4839979164486277e+00 2 0 -1
936 310 8 -8.4799999999999998e-01 -4.7955312165655952e+00 -9.6993362113026720e+00 -9.8200261466633574e+00 1 1 -2
64 19 7 4.2399999999999999e-01 -9.3257377890967454e+00 -7.9667117139591443e+00 -6.3339584358607226e-01 1 -1 2
739 244 7 4.2399999999999999e-01 -7.1718982076770494e+00 -5.4169103120517130e+00 -7.8624577157040854e+00 1 -1 1
884 293 7 4.2399999999999999e-01 -1.7585159948052294e+00 -4.6221513413616817e+00 -6.7070823610691885e+00 -1 1 -1
440 145 7 4.2399999999999999e-01 -6.1294736070525291e+00 -2.2266560472741102e+00 -1.5769777531035629e+00 0 0 0
966 320 8 -8.4799999999999998e-01 -6.4485364218144197e+00 -8.4608635704638857e+00 -4.6554536232285129e+00 2 -1 0
975 323 8 -8.4799999999999998e-01 -7.1394131139193462e-01 -2.4831007370940679e+00 -9.4816954869603673e+00 0 0 3
8 1 4 4.0000000000000001e-02 -9.9799982823967586e+00 -6.3326186604245676e+00 -8.8709107728101255e+00 2 1 0
2 1 2 0.0000000000000000e+00 -8.6443885261235849e+00 -4.9613426277530843e+00 -9.7336982000645946e+00 2 1 0
119 38 7 4.2399999999999999e-01 -4.1111168605383943e+00 -1.1066147693637230e+01 -7.4086202942884380e+00 -1 1 0
928 307 7 4.2399999999999999e-01 -8.1441019142240112e+00 -4.7914483223308384e+00 -4.4426340832545614e+00 1 1 -2
1039 344 7 4.2399999999999999e-01 -1.0538098911624916e+01 -1.0213722712460189e+00 -8.4623805629846967e+00 0 0 0
535 176 7 4.2399999999999999e-01 -6.2691179138516695e-01 -4.8007637960060023e+00 -1.0970144569965127e+01 -1 2 0
123 39 8 -8.4799999999999998e-01 -2.7249449089612217e+00 -5.6410395127611439e+00 -2.4023257048200559e+00 0 1 0
974 323 7 4.2399999999999999e-01 -1.2282227296945862e+00 -2.9987565535515373e+00 -8.7962565848351861e+00 0 0 3
177 57 8 -8.4799999999999998e-01 -4.3873165378187009e+00 -9.4334328017541331e+00 -7.0035221367370948e+00 1 -1 1
25 6 7 4.2399999999999999e-01 -1.0904717672524184e+01 -1.9981289621342277e+00 -1.6541906890615881e+00 1 0 0
122 39 7 4.2399999999999999e-01 -2.3597543947561554e+00 -5.6643407063854756e+00 -3.3330811220155292e+00 0 1 0
230 75 7 4.2399999999999999e-01 -4.9751822001805888e+00 -6.1534485250303046e+00 -7.4764516250417667e+00 0 0 1
834 276 8 -8.4799999999999998e-01 -3.1141424767615806e+00 -1.7525253087588002e+00 -1.0376606698129073e+01 1 -1 2
536 177 7 4.2399999999999999e-01 -2.4411947546778663e+00 -9.0573099857547135e+00 -6.9656391402005973e+00 1 -1 0
176 57 7 4.2399999999999999e-01 -4.3697269100775378e+00 -8.4808103201897218e+00 -7.3075173978552534e+00 1 -1 1
558 184 8 -8.4799999999999998e-01 -1.2995025489881638e+00 -1.7330010025576925e-01 -3.5619975894157170e+00 1 0 0
124 39 7 4.2399999999999999e-01 -3.7114638730690546e+00 -5.4800651078088780e+00 -2.4352422180643316e+00 0 1 0
1064 353 7 4.2399999999999999e-01 -7.3432994597737711e-01 -9.7485868163156510e+00 -3.8622127332705034e+00 0 -1 1
862 285 7 4.2399999999999999e-01 -3.5897862762721919e+00 -3.5526530694462313e+00 -8.0638793247350939e+00 0 0 2
548 181 7 4.2399999999999999e-01 -8.6490737885142543e-01 -4.3620211411712928e+00 -1.5845781194607458e+00 2 0 -1
967 320 7 4.2399999999999999e-01 -7.1687300309962358e+00 -8.9004201496247823e+00 -5.1924116311398603e+00 2 -1 0
134 43 7 4.2399999999999999e-01 -1.0430752236285532e+01 -3.8900220897164104e+00 -3.8847018281236636e+00 0 1 0
3 1 3 0.0000000000000000e+00 -8.0099733952705439e+00 -4.9496325836094188e+00 -8.8472834944096981e+00 2 1 0
178 57 7 4.2399999999999999e-01 -5.0907278870457588e+00 -9.5464234999330344e+00 -6.3016265236940905e+00 1 -1 1
61 18 7 4.2399999999999999e-01 -5.8643253152008095e+00 -1.0023742654541607e+01 -1.1081368913759773e+01 1 0 1
965 320 7 4.2399999999999999e-01 -6.8091030378072288e+00 -7.6301969187305794e+00 -4.2309587965868980e+00 2 -1 0
103 32 7 4.2399999999999999e-01 -8.4295873523535096e+00 -2.2274131591159474e+00 -7.6162922199609753e+00 1 0 1
476 157 7 4.2399999999999999e-01 -8.1146356431347044e-01 -1.1005985496433809e+01 -2.1525707872186999e+00 0 1 -3
477 157 8 -8.4799999999999998e-01 -1.5330338517703783e+00 -1.0634596411786456e+01 -2.7370540388304843e+00 0 1 -3
572 189 7 4.2399999999999999e-01 -1.0484387191808267e+01 -9.7155755558016654e+00 -9.3728858824210288e+00 2 -1 -1
813 269 8 -8.4799999999999998e-01 -5.5869481826301213e+00 -2.9478076386387198e+00 -4.9587757138794215e+00 2 0 0
574 189 7 4.2399999999999999e-01 -9.8272141497647976e+00 -9.2354072719033251e+00 -7.9569934639218332e+00 2 -1 -1
185 60 7 4.2399999999999999e-01 -5.2902489924077756e-02 -2.7755071728307517e+00 -4.9954680942649956e+00 -1 0 0
442 145 7 4.2399999999999999e-01 -7.2320904977335143e+00 -3.2807833106100022e+00 -9.9367546734276679e-01 0 0 0
136 43 7 4.2399999999999999e-01 -1.0947340712206438e+01 -5.2386430215833943e+00 -4.6472953306527600e+00 0 1 0
615 203 8 -8.4799999999999998e-01 -2.1645973550750632e+00 -6.1246503739552347e+00 -5.4572896961793438e+00 -1 0 1
573 189 8 -8.4799999999999998e-01 -1.0640032178356030e+01 -9.1878164330176730e+00 -8.5377462925878955e+00 2 -1 -1
622 205 7 4.2399999999999999e-01 -7.7880116024826362e+00 -1.0542766242079001e+01 -7.1236661908718482e+00 0 0 0
334 109 7 4.2399999999999999e-01 -6.0022500533243113e+00 -2.8344500365265706e+00 -8.3138679868122214e+00 1 -1 0
484 159 7 4.2399999999999999e-01 -4.4424885733862807e+00 -3.7025588254670199e+00 -3.5179374208753345e-01 0 1 -1
976 323 7 4.2399999999999999e-01 -1.3249941895760120e+00 -2.2195288433050688e+00 -1.0228258542702985e+01 0 0 3
887 294 7 4.2399999999999999e-01 -9.3818914175136818e+00 -3.4821207275035526e-01 -1.0438903994389719e+01 -2 -1 0
1003 332 7 4.2399999999999999e-01 -5.4885318179042457e+00 -4.3420384991235821e+00 -2.3729086438952436e+00 -1 0 1
851 282 7 4.2399999999999999e-01 -2.1315387819017086e+00 -6.9216380731639253e+00 -9.7932011754243931e-01 -1 1 2
737 244 7 4.2399999999999999e-01 -7.1753388640197207e+00 -7.0488546255401214e+00 -7.7997259228555169e+00 1 -1 1
1050 348 8 -8.4799999999999998e-01 -3.1576792700365708e-01 -7.2115090615027455e-01 -1.2075905529503821e+00 0 0 -1
814 269 7 4.2399999999999999e-01 -6.0705371570957043e+00 -3.7778983779566015e+00 -4.6807417139551371e+00 2 0 0
101 32 7 4.2399999999999999e-01 -9.7739584880514681e+00 -2.9357961589833756e+00 -7.0179194927200097e+00 1 0 1
861 285 8 -8.4799999999999998e-01 -4.5178517922146497e+00 -3.7822622818632627e+00 -8.3574566454797523e+00 0 0 2
614 203 7 4.2399999999999999e-01 -2.0557710648349374e+00 -6.9605921727157716e+00 -5.9954080153706721e+00 -1 0 1
1001 332 7 4.2399999999999999e-01 -6.0066221368665191e+00 -5.3236748635861915e+00 -3.5708915318100640e+00 -1 0 1
646 213 7 4.2399999999999999e-01 -3.4963909950765091e+00 -2.7088654708050548e+00 -2.6474513786636944e+00 0 1 2
10 1 6 4.1799999999999998e-01 -8.7772109691421853e+00 -4.0993613746130668e+00 -1.0117749184264119e+01 2 1 0
616 203 7 4.2399999999999999e-01 -3.0989143815492035e+00 -5.7824910482276044e+00 -5.5582360808021205e+00 -1 0 1
24 6 8 -8.4799999999999998e-01 -1.0877148953525168e+01 -2.4858769266102829e+00 -2.5268625330291741e+00 1 0 0
731 242 7 4.2399999999999999e-01 -4.0809290712453530e+00 -3.1426608071300599e-01 -5.2165055132452469e+00 -1 1 1
483 159 8 -8.4799999999999998e-01 -3.5764659935543053e+00 -3.2978837277684789e+00 -6.4582581645844250e-01 0 1 -1
738 244 8 -8.4799999999999998e-01 -7.2266383476024281e+00 -6.2106846164145466e+00 -7.2565381593089455e+00 1 -1 1
935 310 7 4.2399999999999999e-01 -4.5345226661589404e+00 -9.7256715497628363e+00 -8.8549394145808442e+00 1 1 -2
537 177 8 -8.4799999999999998e-01 -1.5693411431288613e+00 -8.5929834987571390e+00 -6.8091651471270076e+00 1 -1 0
937 310 7 4.2399999999999999e-01 -3.9893288731703800e+00 -9.5024527700249219e+00 -1.0378135548086197e+01 1 1 -2
245 80 7 4.2399999999999999e-01 -6.2940819622422675e+00 -9.0148725902047939e+00 -9.5286967759526355e+00 -1 0 1
299 98 7 4.2399999999999999e-01 -7.2985697031170158e+00 -7.1307895489782727e+00 -1.5151936175273537e+00 -2 0 1
579 191 8 -8.4799999999999998e-01 -3.8625763483456224e+00 -5.6291807648122463e+00 -1.0276612582032421e+01 2 2 2
220 71 7 4.2399999999999999e-01 -8.2805167984473584e+00 -1.0357591758842958e+01 -1.0847270530292922e+01 3 1 0
1042 345 7 4.2399999999999999e-01 -6.4726748135617749e+00 -1.0517944393740613e+01 -1.9457542463353601e+00 1 1 1
4 1 3 0.0000000000000000e+00 -8.3644646142646994e+00 -5.7080971115341050e+00 -1.0476901409375936e+01 2 1 0
644 213 7 4.2399999999999999e-01 -2.5640816956986789e+00 -1.6302552814601636e+00 -3.4440629657197395e+00 0 1 2
7 1 4 4.0000000000000001e-02 -1.0466656135231041e+01 -4.6540506207141759e+00 -8.4497721271962654e+00 2 1 0
441 145 8 -8.4799999999999998e-01 -6.2822248342726645e+00 -3.1715311588270314e+00 -1.2869881595210888e+00 0 0 0
247 80 7 4.2399999999999999e-01 -7.3687773776733447e+00 -7.9101206801659671e+00 -1.0068829610458785e+01 -1 0 1
718 237 7 4.2399999999999999e-01 -7.9131778932281307e+00 -1.0941968153649956e+01 -5.3555378146365991e+00 -1 -2 0
467 154 7 4.2399999999999999e-01 -3.6748624411242030e+00 -1.0842314030801898e+01 -9.8730529911800957e-01 -1 -1 0
538 177 7 4.2399999999999999e-01 -1.1162227799157503e+00 -8.4303874369854253e+00 -7.6857829923445395e+00 1 -1 0
300 98 8 -8.4799999999999998e-01 -6.3479750074060046e+00 -7.1205283610136192e+00 -1.2045862869813906e+00 -2 0 1
231 75 8 -8.4799999999999998e-01 -4.2367060982585514e+00 -6.7296227319519870e+00 -7.8270060777203714e+00 0 0 1
468 154 8 -8.4799999999999998e-01 -3.6513415851594830e+00 -1.0215394526819585e+01 -2.0844050917762935e-01 -1 -1 0
835 276 7 4.2399999999999999e-01 -3.8470912764655054e+00 -2.0962675070006931e+00 -9.7893764238950460e+00 1 -1 2
63 19 8 -8.4799999999999998e-01 -9.2710099558412526e+00 -7.2361716546912884e+00 -1.3142244006246440e+00 1 -1 2
795 263 8 -8.4799999999999998e-01 -6.0032355823361776e+00 -6.4448062340059664e-01 -1.0613349389170516e+01 0 -2 0
333 109 8 -8.4799999999999998e-01 -6.6325346586997487e+00 -2.4744394815458435e+00 -7.6258667986219759e+00 1 -1 0
942 312 8 -8.4799999999999998e-01 -1.0769229242855619e+01 -1.0922380670418985e+01 -4.3407123283897704e+00 -1 -1 0
6 1 4 4.0000000000000001e-02 -1.0748583052272409e+01 -5.2032798038565247e+00 -1.0047636922103852e+01 2 1 0
478 157 7 4.2399999999999999e-01 -2.3895718484791235e+00 -1.1118701219300192e+01 -2.5576139089250045e+00 0 1 -3
23 6 7 4.2399999999999999e-01 -1.0900224866289230e+01 -1.8262827781454156e+00 -3.2782714450992447e+00 1 0 0
332 109 7 4.2399999999999999e-01 -6.2698809111242406e+00 -2.6592874466316889e+00 -6.7123433232321830e+00 1 -1 0
621 205 8 -8.4799999999999998e-01 -7.6471531911596067e+00 -9.6817461146666108e+00 -6.6347696683527708e+00 0 0 0
301 98 7 4.2399999999999999e-01 -5.8282931174529340e+00 -6.4575134870705559e+00 -1.7436187124004885e+00 -2 0 1
927 307 8 -8.4799999999999998e-01 -7.2194696356892507e+00 -5.1246591985763663e+00 -4.6276684553886813e+00 1 1 -2
1 1 1 1.4499999999999999e-01 -1.0046691537199367e+01 -5.3018606624971589e+00 -9.2193973082102563e+00 2 1 0
1002 332 8 -8.4799999999999998e-01 -5.3114347847376004e+00 -5.1953941834692241e+00 -2.8634515406740295e+00 -1 0 1
1033 342 7 4.2399999999999999e-01 -9.2246777169867773e+00 -5.8896235064907394e+00 -2.8437638328818160e-01 0 0 0
559 184 7 4.2399999999999999e-01 -9.3047525360372241e-01 -2.5356944208920318e-01 -2.6359373692002510e+00 1 0 0
860 285 7 4.2399999999999999e-01 -4.4870619522312127e+00 -4.5671365210295853e+00 -8.9765182749793944e+00 0 0 2
1038 344 8 -8.4799999999999998e-01 -1.1030288185767221e+01 -4.8326558164845679e-01 -9.1467796537428097e+00 0 0 0
527 174 7 4.2399999999999999e-01 -7.7167504042116661e+00 -6.1281168426263433e+00 -1.0751845594460347e+01 1 1 1
135 43 8 -8.4799999999999998e-01 -1.0147953266371040e+01 -4.6771314421281538e+00 -4.4330602931074825e+00 0 1 0
246 80 8 -8.4799999999999998e-01 -7.0201141305415096e+00 -8.3821420017055708e+00 -9.2589892841774386e+00 -1 0 1
232 75 7 4.2399999999999999e-01 -3.8995779132959933e+00 -6.3514982047692552e+00 -8.6893180775674423e+00 0 0 1
241 78 7 4.2399999999999999e-01 -6.2315998474515624e+00 -8.6819487255382199e+00 -3.6826980972482559e-01 2 0 1
62 19 7 4.2399999999999999e-01 -9.8780652508989917e+00 -7.4482065539892464e+00 -2.0802119634439098e+00 1 -1 2
779 258 7 4.2399999999999999e-01 -7.4552989119677910e+00 -5.1679018974258817e-01 -5.9729489829066713e+00 -1 1 -1
102 32 8 -8.4799999999999998e-01 -9.4092987216306518e+00 -2.3701686260465795e+00 -7.7577173348711934e+00 1 0 1
578 191 7 4.2399999999999999e-01 -3.1237426048053720e+00 -5.0056859905760405e+00 -1.0532718737985657e+01 2 2 2
9 1 5 -6.8300000000000005e-01 -8.7220670825103142e+00 -4.9254044954567169e+00 -9.6618704941610680e+00 2 1 0
1066 353 7 4.2399999999999999e-01 -8.3947143586184758e-01 -9.0588938599599818e+00 -5.3388501872966261e+00 0 -1 1
886 293 7 4.2399999999999999e-01 -1.6193086193730331e+00 -3.0041158547284841e+00 -6.5345377243059719e+00 -1 1 -1
581 192 7 4.2399999999999999e-01 -9.4594031793663778e+00 -1.8165811486559864e+00 -6.3536561057270902e-02 -1 1 2
877 290 7 4.2399999999999999e-01 -5.5858556060292406e+00 -9.2320653925688845e-01 -3.0333901496816331e+00 0 -1 0
852 282 8 -8.4799999999999998e-01 -2.3138981054240304e+00 -7.5441587679984430e+00 -2.1812050145225292e-01 -1 1 2
469 154 7 4.2399999999999999e-01 -3.1818994340955244e+00 -9.3728056483407016e+00 -4.7279303046419230e-01 -1 -1 0
833 276 7 4.2399999999999999e-01 -3.3388991383273181e+00 -8.2755612452903016e-01 -1.0683413124315829e+01 1 -1 2
186 60 8 -8.4799999999999998e-01 -6.7051037005855108e-01 -2.1281490517473660e+00 -5.4423500632256907e+00 -1 0 0
943 312 7 4.2399999999999999e-01 -1.0055535846133175e+01 -1.0329749447990348e+01 -4.7143990357477259e+00 -1 -1 0
1065 353 8 -8.4799999999999998e-01 -2.3118238257987400e-01 -9.2502494517772025e+00 -4.5684095233235418e+00 0 -1 1
557 184 7 4.2399999999999999e-01 -8.4523078213897662e-01 -8.3355719414167773e-01 -4.1602528059629149e+00 1 0 0
794 263 7 4.2399999999999999e-01 -6.8778587282096071e+00 -1.7734679873088055e-01 -1.0743861537416400e+01 0 -2 0
219 71 8 -8.4799999999999998e-01 -9.2707425174135043e+00 -1.0352822417382967e+01 -1.0707116682539541e+01 3 1 0
876 290 8 -8.4799999999999998e-01 -5.8611591856160885e+00 -6.2793318235179463e-01 -2.1183853389725691e+00 0 -1 0
1051 348 7 4.2399999999999999e-01 -1.0730828092809208e+00 -8.4460898247758287e-01 -5.6615142027752086e-01 0 0 -1
969 321 8 -8.4799999999999998e-01 -1.1049566359003819e+01 -1.0384050853639977e+00 -2.4343473880740518e-01 0 1 1
422 139 7 4.2399999999999999e-01 -9.0910763416989155e+00 -1.0970689941252433e+01 -1.3082747632076064e-04 1 0 0
518 171 7 4.2399999999999999e-01 -1.0877692566195229e+01 -4.9365957477939979e+00 -2.1545296626218935e-01 1 0 1
187 60 7 4.2399999999999999e-01 -2.2416794683600827e-01 -1.7460023317161344e+00 -6.2516438665770915e+00 -1 0 0
580 191 7 4.2399999999999999e-01 -4.3817318419243696e+00 -5.8838606558075650e+00 -1.1092595211455244e+01 2 2 2
1014 336 8 -8.4799999999999998e-01 -3.0096880073425165e+00 -6.2333543623113208e-01 -1.0927758720874792e-01 -2 0 2
583 192 7 4.2399999999999999e-01 -8.9454257555056760e+00 -3.3667472837968573e+00 -6.2235013578453291e-02 -1 1 2
944 313 7 4.2399999999999999e-01 -9.8462779930969511e+00 -3.7979575750600718e+00 8.9502983766398110e+00 0 0 -2
919 304 7 4.2399999999999999e-01 -4.2696836369287858e+00 -2.4788207350165408e+00 8.4134766958615828e+00 1 0 0
585 193 8 -8.4799999999999998e-01 -6.6615209866228051e+00 -7.3296637696600362e+00 5.3181574193361705e+00 0 -1 0
772 255 7 4.2399999999999999e-01 -1.1167761039104853e+00 -5.6366190788474135e-01 3.3845575637379071e+00 0 -1 2
647 214 7 4.2399999999999999e-01 -7.2499458255716815e+00 -2.3107448685183822e+00 1.4154242828327313e+00 0 0 0
396 130 8 -8.4799999999999998e-01 -1.0768934011716681e+01 -2.3148698563610139e+00 8.6992573365292820e+00 0 0 0
13 2 7 4.2399999999999999e-01 -5.2366329468899844e+00 -6.8491976659921754e+00 8.9415180231658837e+00 -1 0 0
533 176 7 4.2399999999999999e-01 -1.0023074838405019e+00 -3.6811552129807481e+00 1.0141240745947925e+01 -1 2 -1
945 313 8 -8.4799999999999998e-01 -9.0694871981444276e+00 -4.4213015279205461e+00 9.0411426563557349e+00 0 0 -2
328 107 7 4.2399999999999999e-01 -2.2489093892005663e-01 -9.6287804577273199e+00 9.8857938353601718e+00 0 1 0
800 265 7 4.2399999999999999e-01 -3.0611381764015153e+00 -8.1857892046829974e+00 5.1045726691526099e+00 -1 2 0
541 178 7 4.2399999999999999e-01 -3.7052803857843752e+00 -4.1880156755058557e+00 4.1540163336757754e+00 -1 1 -1
576 190 8 -8.4799999999999998e-01 -7.6466345988816879e+00 -8.0236638862136296e+00 2.6276446193843537e+00 0 1 1
575 190 7 4.2399999999999999e-01 -7.2140919939437698e+00 -7.3781270047429821e+00 3.2572480628585367e+00 0 1 1
863 286 7 4.2399999999999999e-01 -1.0750279832218565e+01 -1.9568763000452343e+00 5.8137130645240944e+00 0 1 -2
785 260 7 4.2399999999999999e-01 -5.3527169328476560e+00 -1.0528078809394804e+01 5.4845894540313473e+00 -3 1 0
81 25 8 -8.4799999999999998e-01 -5.1109917153141238e+00 -1.0824157861712184e+01 3.7139025484093970e+00 1 1 1
11 2 7 4.2399999999999999e-01 -5.9473430023728513e+00 -6.5822990505092589e+00 1.0387493725753927e+01 -1 0 0
697 230 7 4.2399999999999999e-01 -2.0205828499897489e+00 -5.7395855647220966e+00 7.2852493208664519e+00 -1 0 0
313 102 7 4.2399999999999999e-01 -1.0125368663223274e+01 -8.3321400509879204e+00 1.0470571750409150e+01 0 0 -1
205 66 7 4.2399999999999999e-01 -1.0853984048553608e+01 -5.4310586239889602e-03 9.8880250299181434e+00 1 0 0
706 233 7 4.2399999999999999e-01 -4.6328867172424548e+00 -5.8964712606751499e+00 1.5466995593121560e+00 1 0 0
397 130 7 4.2399999999999999e-01 -1.0443664671967442e+01 -1.4237877183157845e+00 8.3824229099586667e+00 0 0 0
865 286 7 4.2399999999999999e-01 -9.9375926834403288e+00 -7.6000791915313215e-01 5.0559293367529499e+00 0 1 -2
839 278 7 4.2399999999999999e-01 -1.6516242427404890e+00 -2.6938262165296418e+00 1.8970599971987383e+00 1 0 0
888 294 8 -8.4799999999999998e-01 -9.2236230646071355e+00 -3.3972277850476296e-01 1.0813175252452865e+01 -2 -1 -1
586 193 7 4.2399999999999999e-01 -7.0056945115843803e+00 -8.1297888190436076e+00 5.8096429339772833e+00 0 -1 0
735 243 8 -8.4799999999999998e-01 -9.3236760103036769e+00 -6.6783293603834561e+00 7.5946153829224095e+00 -1 -1 0
1013 336 7 4.2399999999999999e-01 -3.8535864282528287e+00 -1.3278816903628687e-01 1.0846159861389282e-01 -2 0 2
449 148 7 4.2399999999999999e-01 -8.9186456756547532e+00 -5.7690896882174236e-01 7.1346263879047278e+00 0 0 1
22 5 7 4.2399999999999999e-01 -4.2403913798284512e+00 -8.3146143784042721e+00 6.9101116241512344e+00 3 0 1
853 282 7 4.2399999999999999e-01 -2.7128867831263150e+00 -7.0323380305919923e+00 5.4283956967310765e-01 -1 1 2
1046 347 7 4.2399999999999999e-01 -7.0091726112770418e+00 -5.0649989785038887e+00 9.8791783342507600e-01 2 1 1
598 197 7 4.2399999999999999e-01 -2.2545641435739743e+00 -2.7266162150156230e+00 7.7062153582981878e+00 -2 0 0
554 183 7 4.2399999999999999e-01 -6.4436826533700788e+00 -2.3363124538446236e+00 9.0622209227392609e+00 2 1 0
486 160 8 -8.4799999999999998e-01 -1.0441418251629031e-01 -2.5117276678293337e+00 9.1687201497816559e+00 2 0 2
327 107 8 -8.4799999999999998e-01 -8.9824814247177009e-01 -9.1444487124585105e+00 9.3270231952941494e+00 0 1 0
596 197 7 4.2399999999999999e-01 -3.1938988806399404e+00 -1.8237129576786888e+00 6.7215301054234153e+00 -2 0 0
244 79 7 4.2399999999999999e-01 -1.2631186411724826e-01 -9.0449329253737520e+00 2.6326242100216177e+00 1 0 0
840 278 8 -8.4799999999999998e-01 -1.7906991509042012e+00 -3.4101116231537842e+00 1.2130932426984256e+00 1 0 0
743 246 7 4.2399999999999999e-01 -1.5918720095498387e+00 -5.1101068379610899e+00 3.4142569866974402e+00 1 0 1
451 148 7 4.2399999999999999e-01 -8.0524423047136899e+00 -7.1929785060277318e-01 8.5117996666883329e+00 0 0 1
745 246 7 4.2399999999999999e-01 -2.4947511542129490e+00 -5.4349804075139785e+00 4.7357922590986643e+00 1 0 1
671 222 7 4.2399999999999999e-01 -1.1008321098019982e+01 -6.4732697735997986e+00 6.8328445339145887e+00 -2 0 1
695 230 7 4.2399999999999999e-01 -2.6597969941897119e+00 -4.3432881143165520e+00 6.7294127469119580e+00 -1 0 0
648 214 8 -8.4799999999999998e-01 -6.6561726644506978e+00 -2.0209544786736995e+00 2.1662021606032180e+00 0 0 0
789 261 8 -8.4799999999999998e-01 -1.6932560995076571e+00 -6.5523196793280878e+00 8.7908235352624260e+00 -1 0 0
353 116 7 4.2399999999999999e-01 -9.0308618802263201e+00 -5.2363817640724912e+00 3.1705019181277994e+00 0 -1 -1
607 200 7 4.2399999999999999e-01 -7.0251784266331443e+00 -9.7857078604378493e+00 7.1670695870806718e+00 0 1 -2
770 255 7 4.2399999999999999e-01 -1.5372486024673986e+00 -8.7950741416894829e-01 1.8383900552393193e+00 0 -1 2
534 176 8 -8.4799999999999998e-01 -1.3252616834033333e+00 -4.4970113714369910e+00 1.0621128377363764e+01 -1 2 -1
528 174 8 -8.4799999999999998e-01 -7.6669810064690935e+00 -6.9187082760797560e+00 1.0877205596735944e+01 1 1 0
577 190 7 4.2399999999999999e-01 -6.9920313066406194e+00 -8.2876998281420704e+00 1.9191314717755095e+00 0 1 1
240 78 8 -8.4799999999999998e-01 -6.2993805885151311e+00 -9.5433976048555209e+00 1.3524125462022951e-01 2 0 1
1048 347 7 4.2399999999999999e-01 -6.5057131487097273e+00 -4.7720799323895999e+00 2.5136691945546783e+00 2 1 1
790 261 7 4.2399999999999999e-01 -1.5548095033887748e+00 -7.5274277920533992e+00 8.9646336531255351e+00 -1 0 0
786 260 8 -8.4799999999999998e-01 -5.4198035864128862e+00 -1.0422510288054088e+01 6.4768436043094653e+00 -3 1 0
918 304 8 -8.4799999999999998e-01 -4.8002804514264747e+00 -2.3924998213886113e+00 9.2568200243823853e+00 1 0 0
889 294 7 4.2399999999999999e-01 -8.7054226159121786e+00 -1.1541340521348484e+00 1.0551614628843446e+01 -2 -1 -1
21 5 8 -8.4799999999999998e-01 -4.0845178170368541e+00 -7.6281283992359663e+00 6.1997207356056840e+00 3 0 1
12 2 8 -8.4799999999999998e-01 -5.1670773956230276e+00 -6.3512981829957278e+00 9.8060822303880393e+00 -1 0 0
704 233 7 4.2399999999999999e-01 -3.1837700757419256e+00 -5.9157862647386876e+00 2.2996125746404346e+00 1 0 0
221 72 7 4.2399999999999999e-01 -7.1133008314880923e+00 -7.6333072247942901e-01 3.2386949195928434e+00 -1 0 1
269 88 7 4.2399999999999999e-01 -5.2897512716074759e+00 -9.6124945001339821e+00 8.9540278894520036e+00 1 2 0
385 126 7 4.2399999999999999e-01 -6.7846008806557618e+00 -5.6972270150050432e+00 4.8248705503832632e+00 -1 -1 -1
796 263 7 4.2399999999999999e-01 -5.9606998858594844e+00 -1.4454265720804909e+00 1.1028795030235933e+01 0 -2 -1
1031 342 7 4.2399999999999999e-01 -9.5849337791919389e+00 -5.1874851457815323e+00 1.1454550331816069e+00 0 0 0
705 233 8 -8.4799999999999998e-01 -3.7608031906439745e+00 -6.3794018647452555e+00 1.6270758772035290e+00 1 0 0
539 178 7 4.2399999999999999e-01 -4.4277460662154722e+00 -2.8059102677678656e+00 4.6388038865846628e+00 -1 1 -1
582 192 8 -8.4799999999999998e-01 -8.6685220624215553e+00 -2.4145358768489569e+00 6.7492799239905921e-02 -1 1 2
20 5 7 4.2399999999999999e-01 -3.6195095141827798e+00 -6.8368752226753502e+00 6.5970852939144997e+00 3 0 1
480 158 8 -8.4799999999999998e-01 -7.5223881033591944e-01 -1.0501317784210119e+01 7.0305366665402609e+00 -2 2 -1
191 62 7 4.2399999999999999e-01 -1.0231967082176228e+01 -4.6499984131921046e-01 2.7988110976877767e+00 2 2 0
917 304 7 4.2399999999999999e-01 -4.3212247973603883e+00 -2.8579587136387161e+00 1.0001175588426761e+01 1 0 0
744 246 8 -8.4799999999999998e-01 -2.5233160134673565e+00 -5.2352804249412150e+00 3.7562436172765565e+00 1 0 1
354 116 8 -8.4799999999999998e-01 -9.9728575991948460e+00 -5.1327455099884585e+00 2.8509447492167315e+00 0 -1 -1
450 148 8 -8.4799999999999998e-01 -8.4814951796484710e+00 -7.3503237110370989e-02 7.8800757801549537e+00 0 0 1
696 230 8 -8.4799999999999998e-01 -2.4346320508986246e+00 -5.2889184188830543e+00 6.4942509427216564e+00 -1 0 0
326 107 7 4.2399999999999999e-01 -1.1078460250413755e+00 -9.6865134111495461e+00 8.5131152496904789e+00 0 1 0
270 88 8 -8.4799999999999998e-01 -4.4944582096906007e+00 -9.0615202696238129e+00 8.7007518922847247e+00 1 2 0
1047 347 8 -8.4799999999999998e-01 -6.2169100524261101e+00 -5.0524648967067645e+00 1.5981425220765537e+00 2 1 1
606 200 8 -8.4799999999999998e-01 -7.7841546188672774e+00 -9.1964222373482585e+00 7.4443997227476260e+00 0 1 -2
540 178 8 -8.4799999999999998e-01 -4.5838166293674885e+00 -3.7289685501824650e+00 4.2869275254603636e+00 -1 1 -1
80 25 7 4.2399999999999999e-01 -4.5363429269778059e+00 -1.0142092642556731e+01 3.2613730072904197e+00 1 1 1
864 286 8 -8.4799999999999998e-01 -1.0233333388536304e+01 -1.1107935091135239e+00 5.9445796365636703e+00 0 1 -2
981 325 8 -8.4799999999999998e-01 -3.3854425021940280e+00 -2.2133406839756198e-01 6.0810495433175156e+00 1 1 -1
802 265 7 4.2399999999999999e-01 -2.7840451672317510e+00 -8.8228417908295320e+00 3.6265422941027463e+00 -1 2 0
60 18 8 -8.4799999999999998e-01 -6.5002739965513125e+00 -1.0204291167733540e+01 1.0407722021956168e+01 1 0 0
584 193 7 4.2399999999999999e-01 -5.6768148620072303e+00 -7.2432203102866133e+00 5.4701354203779751e+00 0 -1 0
804 266 8 -8.4799999999999998e-01 -8.0677581466020634e+00 -1.0387294090233686e+01 3.7678848162534528e+00 0 1 1
771 255 8 -8.4799999999999998e-01 -1.1571568343995899e+00 -1.2695288069899480e+00 2.6772140321773072e+00 0 -1 2
439 144 7 4.2399999999999999e-01 -3.5376352879810273e+00 -9.6760956111070371e+00 1.4995907458384554e+00 0 1 -1
649 214 7 4.2399999999999999e-01 -6.1095671666638749e+00 -2.7982724295876569e+00 2.4779889684794760e+00 0 0 0
947 314 7 4.2399999999999999e-01 -1.9742922785596537e+00 -8.6270168453799769e+00 1.0852941352627415e+01 2 1 -1
998 331 7 4.2399999999999999e-01 -7.2971486003094732e-01 -5.4096649271614261e-01 9.3976091405055833e+00 0 1 0
803 266 7 4.2399999999999999e-01 -7.1417891436443384e+00 -1.0746367220569812e+01 3.8856174111905695e+00 0 1 1
384 126 8 -8.4799999999999998e-01 -6.9316132033280944e+00 -4.8490958306588938e+00 4.3156826357911733e+00 -1 -1 -1
597 197 8 -8.4799999999999998e-01 -2.9743748495090845e+00 -2.7550410695833545e+00 7.0124749026284405e+00 -2 0 0
560 185 7 4.2399999999999999e-01 -1.0524622508434634e+01 -9.3583011604496527e+00 8.6921546058048804e-01 -1 2 1
556 183 7 4.2399999999999999e-01 -7.9325546032821475e+00 -2.9896456071857269e+00 9.2158650935147506e+00 2 1 0
946 313 7 4.2399999999999999e-01 -9.1863792710969641e+00 -5.1929407828759855e+00 8.4157442680811130e+00 0 0 -2
311 102 7 4.2399999999999999e-01 -1.1060424880624467e+01 -8.3587659135198216e+00 9.1318595259863855e+00 0 0 -1
1032 342 8 -8.4799999999999998e-01 -9.3367358913744365e+00 -5.0172664781660368e+00 1.9170499901128757e-01 0 0 0
355 116 7 4.2399999999999999e-01 -1.0479224900586086e+01 -4.5521245700635626e+00 3.4886629133251947e+00 0 -1 -1
736 243 7 4.2399999999999999e-01 -9.6766014461180010e+00 -7.1075578777651911e+00 8.4261309123318782e+00 -1 -1 0
788 261 7 4.2399999999999999e-01 -1.2695578101199700e+00 -6.0196542453446007e+00 9.5235984597733676e+00 -1 0 0
438 144 8 -8.4799999999999998e-01 -3.7120912482940245e+00 -9.0375806515223047e+00 2.2493078203710279e+00 0 1 -1
841 278 7 4.2399999999999999e-01 -1.3021918838814983e+00 -4.2369432270939411e+00 1.4922426280162817e+00 1 0 0
479 158 7 4.2399999999999999e-01 -1.2929130053545901e+00 -1.0830605007080781e+01 6.2562903986697549e+00 -2 2 -1
801 265 8 -8.4799999999999998e-01 -2.3570411356079823e+00 -8.5244824157131038e+00 4.4802762838711576e+00 -1 2 0
271 88 7 4.2399999999999999e-01 -4.0904183100035496e+00 -8.6614425134580202e+00 9.5234922841850036e+00 1 2 0
805 266 7 4.2399999999999999e-01 -8.0525446812745614e+00 -9.6360011661424583e+00 3.1079272922214400e+00 0 1 1
383 126 7 4.2399999999999999e-01 -6.1294977217574953e+00 -4.2594782521392345e+00 4.4114608627737368e+00 -1 -1 -1
437 144 7 4.2399999999999999e-01 -3.6183306190564632e+00 -8.0991289514799103e+00 1.9165481996752671e+00 0 1 -1
494 163 7 4.2399999999999999e-01 -8.7424750868882839e-01 -7.7432267798484915e+00 4.2318809130012944e+00 1 0 2
529 174 7 4.2399999999999999e-01 -8.3896720216735012e+00 -6.8543634253848182e+00 1.0188880870134195e+01 1 1 0
605 200 7 4.2399999999999999e-01 -8.0892980945140955e+00 -9.4550777977310858e+00 8.3610223012701468e+00 0 1 -2
734 243 7 4.2399999999999999e-01 -8.6247113783625196e+00 -7.2660918567422694e+00 7.1869439152907191e+00 -1 -1 0
555 183 8 -8.4799999999999998e-01 -7.3933615455907544e+00 -2.1534215907430259e+00 9.3169217833536564e+00 2 1 0
312 102 8 -8.4799999999999998e-01 -1.0466942392751990e+01 -7.7907024222533838e+00 9.7022063349322316e+00 0 0 -1
787 260 7 4.2399999999999999e-01 -4.5020843096273726e+00 -1.0344150177901046e+01 6.8665389623480912e+00 -3 1 0