LAMMPS (11 Nov 2013)
# created by fftool

units real
boundary p p p

atom_style full
bond_style harmonic
angle_style harmonic
dihedral_style opls
special_bonds lj/coul 0.0 0.0 0.5

read_data data.1.lmp
  1 = max bonds/atom
  10 = max angles/atom
  12 = max dihedrals/atom
  orthogonal box = (-11.1198 -11.1198 -11.1198) to (11.1198 11.1198 11.1198)
  2 by 2 by 2 MPI processor grid
  1090 atoms
  1090 velocities
  729 bonds
  377 angles
  16 dihedrals
  5 = max # of 1-2 neighbors
  4 = max # of 1-3 neighbors
  8 = max # of 1-4 neighbors
  9 = max # of special neighbors
# read_restart restart.*.lmp
# reset_timestep 0

pair_style hybrid lj/cut/coul/long 10.0 10.0   lj/cut/coul/long/soft 1 0.5 10.0 10.0 10.0
pair_modify tail no
kspace_style pppm 1.0e-4

pair_coeff    1    1  none  # CO-C CO-C
pair_coeff    1    2  none  # CO-C CD-
pair_coeff    1    3  none  # CO-C HD-
pair_coeff    1    4  none  # CO-C H1-H
pair_coeff    1    5  none  # CO-C OH-D
pair_coeff    1    6  none  # CO-C HO-D
pair_coeff    1    7  lj/cut/coul/long    0.0000   1.0000  # CO-C Hw
pair_coeff    1    8  lj/cut/coul/long    0.1013   3.3286  # CO-C Ow
pair_coeff    2    2  none  # CD- CD-
pair_coeff    2    3  none  # CD- HD-
pair_coeff    2    4  none  # CD- H1-H
pair_coeff    2    5  none  # CD- OH-D
pair_coeff    2    6  none  # CD- HO-D
pair_coeff    2    7  lj/cut/coul/long/soft    0.0000   1.0000  0.0  # CD- Hw
pair_coeff    2    8  lj/cut/coul/long/soft    0.1013   3.3286  0.0  # CD- Ow
pair_coeff    3    3  none  # HD- HD-
pair_coeff    3    4  lj/cut/coul/long/soft    0.0300   2.5000  0.0  # HD- H1-H
pair_coeff    3    5  none  # HD- OH-D
pair_coeff    3    6  none  # HD- HO-D
pair_coeff    3    7  lj/cut/coul/long/soft    0.0000   1.0000  0.0  # HD- Hw
pair_coeff    3    8  lj/cut/coul/long/soft    0.0683   2.8131  0.0  # HD- Ow
pair_coeff    4    4  none  # H1-H H1-H
pair_coeff    4    5  none  # H1-H OH-D
pair_coeff    4    6  lj/cut/coul/long/soft    0.0000   1.0000  1.0 # H1-H HO-D
pair_coeff    4    7  lj/cut/coul/long    0.0000   1.0000  # H1-H Hw
pair_coeff    4    8  lj/cut/coul/long    0.0683   2.8131  # H1-H Ow
pair_coeff    5    5  none  # OH-D OH-D
pair_coeff    5    6  none  # OH-D HO-D
pair_coeff    5    7  lj/cut/coul/long/soft    0.0000   1.0000  1.0  # OH-D Hw
pair_coeff    5    8  lj/cut/coul/long/soft    0.1625   3.1427  1.0  # OH-D Ow
pair_coeff    6    6  none  # HO-D HO-D
pair_coeff    6    7  lj/cut/coul/long/soft    0.0000   1.0000  1.0  # HO-D Hw
pair_coeff    6    8  lj/cut/coul/long/soft    0.0000   1.7792  1.0  # HO-D Ow
pair_coeff    7    7  lj/cut/coul/long    0.0000   1.0000  # Hw Hw
pair_coeff    7    8  lj/cut/coul/long    0.0000   1.0000  # Hw Ow
pair_coeff    8    8  lj/cut/coul/long    0.1554   3.1655  # Ow Ow

variable nsteps equal 2500000
variable nprint equal ${nsteps}/500
variable nprint equal 2500000/500
variable ndump equal ${nsteps}/100
variable ndump equal 2500000/100
# variable nrestart equal ${nsteps}/10

variable temp equal 300.0
variable press equal 1.0

neighbor 2.0 bin

timestep 2.0

# velocity all create ${temp} 12345

thermo_style multi
thermo ${nprint}
thermo 5000

fix fSHAKE all shake 0.0001 20 ${nprint} b 2 4 5 a 6
fix fSHAKE all shake 0.0001 20 5000 b 2 4 5 a 6
  1 = # of size 2 clusters
  0 = # of size 3 clusters
  2 = # of size 4 clusters
  360 = # of frozen angles

fix fNPT all npt temp ${temp} ${temp} 100 iso ${press} ${press} 500
fix fNPT all npt temp 300 ${temp} 100 iso ${press} ${press} 500
fix fNPT all npt temp 300 300 100 iso ${press} ${press} 500
fix fNPT all npt temp 300 300 100 iso 1 ${press} 500
fix fNPT all npt temp 300 300 100 iso 1 1 500

run 50000
PPPM initialization ...
  G vector (1/distance) = 0.267422
  grid = 12 12 12
  stencil order = 5
  estimated absolute RMS force accuracy = 0.026149
  estimated relative force accuracy = 7.87469e-05
  using double precision FFTs
  3d grid and FFT values/proc = 2197 288
SHAKE stats (type/ave/delta) on step 0
  2 1.09012 1.02745e-06
  4 0.9451 0
  5 1.00011 4.46188e-06
  6 109.47 0.000386874
Memory usage per processor = 9.85406 Mbytes
---------------- Step        0 ----- CPU =      0.0000 (sec) ----------------
TotEng   =     -3350.7515 KinEng   =       640.4621 Temp     =       295.6813 
PotEng   =     -3991.2135 E_bond   =         0.4268 E_angle  =         3.1216 
E_dihed  =         0.1671 E_impro  =         0.0000 E_vdwl   =       748.5168 
E_coul   =     14735.1138 E_long   =    -19478.5596 Press    =      -134.5221 
Volume   =     10999.6217 
SHAKE stats (type/ave/delta) on step 5000
  2 1.08993 3.90048e-07
  4 0.944942 0
  5 0.99994 6.20859e-06
  6 109.47 0.00049028
---------------- Step     5000 ----- CPU =     13.1025 (sec) ----------------
TotEng   =     -3444.3279 KinEng   =       608.5750 Temp     =       280.9601 
PotEng   =     -4052.9030 E_bond   =         0.3391 E_angle  =         2.1464 
E_dihed  =         0.3568 E_impro  =         0.0000 E_vdwl   =       750.9264 
E_coul   =     14669.9499 E_long   =    -19476.6215 Press    =      -207.4046 
Volume   =     10658.5291 
SHAKE stats (type/ave/delta) on step 10000
  2 1.08994 1.00135e-06
  4 0.944948 0
  5 0.999945 5.36895e-06
  6 109.47 0.000485037
---------------- Step    10000 ----- CPU =     25.8624 (sec) ----------------
TotEng   =     -3325.7940 KinEng   =       631.9785 Temp     =       291.7647 
PotEng   =     -3957.7725 E_bond   =         0.8390 E_angle  =         4.0200 
E_dihed  =         0.3067 E_impro  =         0.0000 E_vdwl   =       743.3286 
E_coul   =     14768.3063 E_long   =    -19474.5732 Press    =      -176.0384 
Volume   =     11030.3304 
SHAKE stats (type/ave/delta) on step 15000
  2 1.08982 8.08791e-07
  4 0.944845 0
  5 0.999837 5.43375e-06
  6 109.47 0.000472224
---------------- Step    15000 ----- CPU =     39.0207 (sec) ----------------
TotEng   =     -3375.5848 KinEng   =       689.6938 Temp     =       318.4101 
PotEng   =     -4065.2786 E_bond   =         0.0087 E_angle  =         3.5890 
E_dihed  =         0.4807 E_impro  =         0.0000 E_vdwl   =       766.7717 
E_coul   =     14643.1288 E_long   =    -19479.2575 Press    =        23.9021 
Volume   =     10853.4377 
SHAKE stats (type/ave/delta) on step 20000
  2 1.09003 4.73718e-07
  4 0.945024 0
  5 1.00003 4.72796e-06
  6 109.47 0.000419127
---------------- Step    20000 ----- CPU =     51.8772 (sec) ----------------
TotEng   =     -3337.2263 KinEng   =       691.3556 Temp     =       319.1773 
PotEng   =     -4028.5820 E_bond   =         0.3420 E_angle  =         4.1869 
E_dihed  =         1.1965 E_impro  =         0.0000 E_vdwl   =       733.6669 
E_coul   =     14707.1144 E_long   =    -19475.0886 Press    =      -400.4826 
Volume   =     10932.5319 
SHAKE stats (type/ave/delta) on step 25000
  2 1.09009 1.10584e-07
  4 0.945077 0
  5 1.00008 4.1527e-06
  6 109.47 0.000396163
---------------- Step    25000 ----- CPU =     64.9683 (sec) ----------------
TotEng   =     -3408.4092 KinEng   =       638.1796 Temp     =       294.6276 
PotEng   =     -4046.5888 E_bond   =         0.1388 E_angle  =         4.4034 
E_dihed  =         0.1246 E_impro  =         0.0000 E_vdwl   =       750.6870 
E_coul   =     14673.3105 E_long   =    -19475.2531 Press    =      -683.5618 
Volume   =     11123.1613 
SHAKE stats (type/ave/delta) on step 30000
  2 1.08992 9.89955e-07
  4 0.944934 0
  5 0.999931 5.87117e-06
  6 109.47 0.000481521
---------------- Step    30000 ----- CPU =     77.9185 (sec) ----------------
TotEng   =     -3358.7524 KinEng   =       669.5545 Temp     =       309.1124 
PotEng   =     -4028.3070 E_bond   =         0.7841 E_angle  =         6.5417 
E_dihed  =         0.6104 E_impro  =         0.0000 E_vdwl   =       804.9715 
E_coul   =     14633.5748 E_long   =    -19474.7895 Press    =      1071.4942 
Volume   =     10808.1366 
SHAKE stats (type/ave/delta) on step 35000
  2 1.08999 2.30791e-06
  4 0.944994 0
  5 0.999995 8.83711e-06
  6 109.47 0.000888389
---------------- Step    35000 ----- CPU =     90.7277 (sec) ----------------
TotEng   =     -3366.8802 KinEng   =       666.4847 Temp     =       307.6951 
PotEng   =     -4033.3648 E_bond   =         0.6661 E_angle  =         6.2283 
E_dihed  =         0.5247 E_impro  =         0.0000 E_vdwl   =       801.9106 
E_coul   =     14634.9252 E_long   =    -19477.6197 Press    =       710.5241 
Volume   =     10818.1372 
SHAKE stats (type/ave/delta) on step 40000
  2 1.08997 2.01325e-06
  4 0.94497 1.44329e-15
  5 0.999969 4.27187e-06
  6 109.47 0.000494596
---------------- Step    40000 ----- CPU =    104.0380 (sec) ----------------
TotEng   =     -3353.7354 KinEng   =       673.6436 Temp     =       311.0002 
PotEng   =     -4027.3789 E_bond   =         0.1412 E_angle  =         5.8951 
E_dihed  =         0.2957 E_impro  =         0.0000 E_vdwl   =       745.3368 
E_coul   =     14696.1527 E_long   =    -19475.2004 Press    =       -89.4217 
Volume   =     10776.9676 
SHAKE stats (type/ave/delta) on step 45000
  2 1.09012 4.67951e-07
  4 0.945105 0
  5 1.00011 3.85322e-06
  6 109.47 0.000365376
---------------- Step    45000 ----- CPU =    116.9759 (sec) ----------------
TotEng   =     -3387.3778 KinEng   =       672.4933 Temp     =       310.4691 
PotEng   =     -4059.8712 E_bond   =         0.3374 E_angle  =         3.3783 
E_dihed  =         0.1347 E_impro  =         0.0000 E_vdwl   =       734.0686 
E_coul   =     14679.3681 E_long   =    -19477.1583 Press    =      -695.6782 
Volume   =     10798.8173 
SHAKE stats (type/ave/delta) on step 50000
  2 1.0899 8.0543e-07
  4 0.944909 0
  5 0.999904 4.06273e-06
  6 109.47 0.0003521
---------------- Step    50000 ----- CPU =    130.1691 (sec) ----------------
TotEng   =     -3372.4305 KinEng   =       656.8341 Temp     =       303.2398 
PotEng   =     -4029.2646 E_bond   =         0.7923 E_angle  =         3.6899 
E_dihed  =         0.5254 E_impro  =         0.0000 E_vdwl   =       777.3337 
E_coul   =     14665.1223 E_long   =    -19476.7282 Press    =       349.7943 
Volume   =     10887.8550 
Loop time of 130.169 on 8 procs for 50000 steps with 1090 atoms

Pair  time (%) = 67.4678 (51.8309)
Bond  time (%) = 0.188374 (0.144715)
Kspce time (%) = 22.4659 (17.259)
Neigh time (%) = 9.7904 (7.52129)
Comm  time (%) = 12.9309 (9.9339)
Outpt time (%) = 0.000539899 (0.000414767)
Other time (%) = 17.3252 (13.3098)

FFT time (% of Kspce) = 3.58448 (15.9552)
FFT Gflps 3d (1d only) = 3.59376 51.9791

Nlocal:    136.25 ave 146 max 124 min
Histogram: 2 0 0 0 0 1 2 2 0 1
Nghost:    4185.62 ave 4252 max 4114 min
Histogram: 1 0 1 1 1 1 1 0 0 2
Neighs:    49324.2 ave 55129 max 45860 min
Histogram: 2 1 1 1 0 1 1 0 0 1

Total # of neighbors = 394594
Ave neighs/atom = 362.013
Ave special neighs/atom = 2.05872
Neighbor list builds = 4140
Dangerous builds = 673
reset_timestep 0


variable lambda equal ramp(1.0,0.0)
variable minusl equal 1.0-v_lambda
variable q1 equal  0.145*v_lambda-0.180*(1.0-v_lambda)
variable q2 equal -0.180*(1.0-v_lambda)
variable q3 equal  0.060*(1.0-v_lambda)
variable q4 equal  0.040*v_lambda+0.060*(1.0-v_lambda)
variable q5 equal -0.683*v_lambda
variable q6 equal  0.418*v_lambda

fix fADAPT all adapt 125000     pair lj/cut/coul/long/soft lambda 2*3 7*8 v_minusl     pair lj/cut/coul/long/soft lambda 3 4 v_minusl     pair lj/cut/coul/long/soft lambda 4 6 v_lambda     pair lj/cut/coul/long/soft lambda 5*6 7*8 v_lambda     atom charge 1 v_q1     atom charge 2 v_q2     atom charge 3 v_q3     atom charge 4 v_q4     atom charge 5 v_q5     atom charge 6 v_q6     after yes

variable dlambda equal -0.05
variable minusdl equal 0.05
variable dq1 equal  0.145*v_dlambda+0.180*v_dlambda
variable dq2 equal  0.180*v_dlambda
variable dq3 equal -0.060*v_dlambda
variable dq4 equal  0.040*v_dlambda-0.060*v_dlambda
variable dq5 equal -0.683*v_dlambda
variable dq6 equal  0.418*v_dlambda

compute cFEP all fep ${temp}     pair lj/cut/coul/long/soft lambda 2*3 7*8 v_minusdl     pair lj/cut/coul/long/soft lambda 3 4 v_minusdl     pair lj/cut/coul/long/soft lambda 4 6 v_dlambda     pair lj/cut/coul/long/soft lambda 5*6 7*8 v_dlambda     atom charge 1 v_dq1     atom charge 2 v_dq2     atom charge 3 v_dq3     atom charge 4 v_dq4     atom charge 5 v_dq5     atom charge 6 v_dq6
compute cFEP all fep 300     pair lj/cut/coul/long/soft lambda 2*3 7*8 v_minusdl     pair lj/cut/coul/long/soft lambda 3 4 v_minusdl     pair lj/cut/coul/long/soft lambda 4 6 v_dlambda     pair lj/cut/coul/long/soft lambda 5*6 7*8 v_dlambda     atom charge 1 v_dq1     atom charge 2 v_dq2     atom charge 3 v_dq3     atom charge 4 v_dq4     atom charge 5 v_dq5     atom charge 6 v_dq6

fix fFEP all ave/time 25 4000 125000 c_cFEP[1] c_cFEP[2] file fep10.lmp

# compute cRDF all rdf 100 1 1
# fix fRDF all ave/time 20 100 ${nsteps} c_cRDF file rdf.lammps mode vector

compute cMSD all msd
fix fMSD all ave/time 1 1 ${ndump} c_cMSD[1] c_cMSD[2] c_cMSD[3] c_cMSD[4] file msd.lammps
fix fMSD all ave/time 1 1 25000 c_cMSD[1] c_cMSD[2] c_cMSD[3] c_cMSD[4] file msd.lammps

dump dCONF all custom ${ndump} dump.lammpstrj id mol type element x y z ix iy iz
dump dCONF all custom 25000 dump.lammpstrj id mol type element x y z ix iy iz
dump_modify dCONF element C C H H O H H O

# restart ${nrestart} restart.*.lmp

run ${nsteps}
run 2500000
PPPM initialization ...
  G vector (1/distance) = 0.267708
  grid = 12 12 12
  stencil order = 5
  estimated absolute RMS force accuracy = 0.0258833
  estimated relative force accuracy = 7.79469e-05
  using double precision FFTs
  3d grid and FFT values/proc = 2197 288
FEP settings ...
  temperature = 300.000000
  tail no
  lj/cut/coul/long/soft lambda 2-3 7-8
  lj/cut/coul/long/soft lambda 3-3 4-4
  lj/cut/coul/long/soft lambda 4-4 6-6
  lj/cut/coul/long/soft lambda 5-6 7-8
  1-1 charge
  2-2 charge
  3-3 charge
  4-4 charge
  5-5 charge
  6-6 charge
SHAKE stats (type/ave/delta) on step 0
  2 1.0899 8.0543e-07
  4 0.944909 0
  5 0.999904 4.06273e-06
  6 109.47 0.0003521
Memory usage per processor = 11.0153 Mbytes
---------------- Step        0 ----- CPU =      0.0000 (sec) ----------------
TotEng   =     -3372.4654 KinEng   =       656.8341 Temp     =       303.2398 
PotEng   =     -4029.2994 E_bond   =         0.7923 E_angle  =         3.6899 
E_dihed  =         0.5254 E_impro  =         0.0000 E_vdwl   =       777.3337 
E_coul   =     14685.9003 E_long   =    -19497.5411 Press    =       348.6217 
Volume   =     10887.8550 
SHAKE stats (type/ave/delta) on step 5000
  2 1.08999 3.94887e-06
  4 0.944995 0
  5 0.999996 8.20138e-06
  6 109.47 0.00057578
---------------- Step     5000 ----- CPU =     13.8705 (sec) ----------------
TotEng   =     -3368.7075 KinEng   =       652.7951 Temp     =       301.3751 
PotEng   =     -4021.5026 E_bond   =         0.0968 E_angle  =         6.3401 
E_dihed  =         1.0591 E_impro  =         0.0000 E_vdwl   =       804.4829 
E_coul   =     14664.5553 E_long   =    -19498.0367 Press    =      1392.2438 
Volume   =     10625.7567 
SHAKE stats (type/ave/delta) on step 10000
  2 1.09005 5.30713e-07
  4 0.945048 0
  5 1.00005 4.37177e-06
  6 109.47 0.000498378
---------------- Step    10000 ----- CPU =     27.6778 (sec) ----------------
TotEng   =     -3373.5840 KinEng   =       661.4676 Temp     =       305.3789 
PotEng   =     -4035.0515 E_bond   =         0.0583 E_angle  =         5.7469 
E_dihed  =         1.7143 E_impro  =         0.0000 E_vdwl   =       781.3610 
E_coul   =     14672.9985 E_long   =    -19496.9306 Press    =        52.8261 
Volume   =     11006.5550 
SHAKE stats (type/ave/delta) on step 15000
  2 1.09008 2.54346e-07
  4 0.945067 0
  5 1.00007 4.26665e-06
  6 109.47 0.000362667
---------------- Step    15000 ----- CPU =     40.9261 (sec) ----------------
TotEng   =     -3426.0078 KinEng   =       669.6384 Temp     =       309.1511 
PotEng   =     -4095.6461 E_bond   =         0.2146 E_angle  =         3.8737 
E_dihed  =         0.3181 E_impro  =         0.0000 E_vdwl   =       778.5727 
E_coul   =     14619.1684 E_long   =    -19497.7936 Press    =      -416.7806 
Volume   =     11059.3222 
SHAKE stats (type/ave/delta) on step 20000
  2 1.09007 4.22288e-06
  4 0.945061 0
  5 1.00006 7.94429e-06
  6 109.47 0.000886692
---------------- Step    20000 ----- CPU =     53.7869 (sec) ----------------
TotEng   =     -3441.9417 KinEng   =       628.1401 Temp     =       289.9927 
PotEng   =     -4070.0818 E_bond   =         1.3255 E_angle  =         2.5206 
E_dihed  =         2.1556 E_impro  =         0.0000 E_vdwl   =       845.3567 
E_coul   =     14577.1330 E_long   =    -19498.5732 Press    =      1002.6134 
Volume   =     10845.6204 
SHAKE stats (type/ave/delta) on step 25000
  2 1.08991 3.5205e-07
  4 0.944921 0
  5 0.999918 3.98821e-06
  6 109.47 0.00039675
---------------- Step    25000 ----- CPU =     66.6234 (sec) ----------------
TotEng   =     -3349.1494 KinEng   =       648.6004 Temp     =       299.4385 
PotEng   =     -3997.7499 E_bond   =         1.4984 E_angle  =         3.9658 
E_dihed  =         0.9337 E_impro  =         0.0000 E_vdwl   =       792.6409 
E_coul   =     14700.1024 E_long   =    -19496.8911 Press    =       851.5398 
Volume   =     10919.1684 
SHAKE stats (type/ave/delta) on step 30000
  2 1.08999 1.1526e-06
  4 0.944989 7.77156e-16
  5 0.999989 4.66685e-06
  6 109.47 0.000426877
---------------- Step    30000 ----- CPU =     80.7712 (sec) ----------------
TotEng   =     -3341.4335 KinEng   =       645.3993 Temp     =       297.9607 
PotEng   =     -3986.8328 E_bond   =         0.5975 E_angle  =         3.8327 
E_dihed  =         0.6779 E_impro  =         0.0000 E_vdwl   =       753.8046 
E_coul   =     14749.2033 E_long   =    -19494.9486 Press    =       195.0089 
Volume   =     10978.0693 
SHAKE stats (type/ave/delta) on step 35000
  2 1.09 1.29976e-06
  4 0.944998 1.33227e-15
  5 1 7.38064e-06
  6 109.47 0.000576841
---------------- Step    35000 ----- CPU =     95.1192 (sec) ----------------
TotEng   =     -3369.0464 KinEng   =       636.9742 Temp     =       294.0711 
PotEng   =     -4006.0206 E_bond   =         0.0185 E_angle  =         3.5624 
E_dihed  =         0.2867 E_impro  =         0.0000 E_vdwl   =       781.9270 
E_coul   =     14704.1693 E_long   =    -19495.9845 Press    =       471.1502 
Volume   =     10931.4600 
SHAKE stats (type/ave/delta) on step 40000
  2 1.09001 1.27709e-06
  4 0.945008 0
  5 1.00001 5.43285e-06
  6 109.47 0.000475597
---------------- Step    40000 ----- CPU =    109.3716 (sec) ----------------
TotEng   =     -3415.9586 KinEng   =       663.5884 Temp     =       306.3580 
PotEng   =     -4079.5470 E_bond   =         0.5831 E_angle  =         2.2240 
E_dihed  =         0.1179 E_impro  =         0.0000 E_vdwl   =       795.5268 
E_coul   =     14619.1983 E_long   =    -19497.1971 Press    =       180.2769 
Volume   =     10986.4312 
SHAKE stats (type/ave/delta) on step 45000
  2 1.09002 2.79934e-07
  4 0.945014 0
  5 1.00002 3.90444e-06
  6 109.47 0.000390002
---------------- Step    45000 ----- CPU =    123.7123 (sec) ----------------
TotEng   =     -3391.2466 KinEng   =       662.8120 Temp     =       305.9996 
PotEng   =     -4054.0586 E_bond   =         1.3793 E_angle  =         1.9244 
E_dihed  =         0.0436 E_impro  =         0.0000 E_vdwl   =       776.4643 
E_coul   =     14661.7853 E_long   =    -19495.6554 Press    =      -759.0427 
Volume   =     11381.8563 
SHAKE stats (type/ave/delta) on step 50000
  2 1.09013 5.35873e-07
  4 0.945109 0
  5 1.00012 4.77552e-06
  6 109.47 0.000524375
---------------- Step    50000 ----- CPU =    138.3634 (sec) ----------------
TotEng   =     -3355.6929 KinEng   =       651.8854 Temp     =       300.9551 
PotEng   =     -4007.5784 E_bond   =         0.8404 E_angle  =         5.6321 
E_dihed  =         0.8684 E_impro  =         0.0000 E_vdwl   =       704.5315 
E_coul   =     14776.7646 E_long   =    -19496.2156 Press    =      -955.8618 
Volume   =     10917.9217 
SHAKE stats (type/ave/delta) on step 55000
  2 1.08993 1.81947e-06
  4 0.94494 0
  5 0.999937 6.99567e-06
  6 109.47 0.000538761
---------------- Step    55000 ----- CPU =    153.0062 (sec) ----------------
TotEng   =     -3348.4239 KinEng   =       675.6860 Temp     =       311.9431 
PotEng   =     -4024.1100 E_bond   =         0.3003 E_angle  =         3.0333 
E_dihed  =         0.5519 E_impro  =         0.0000 E_vdwl   =       736.2469 
E_coul   =     14733.4053 E_long   =    -19497.6476 Press    =      -717.9440 
Volume   =     10953.8839 
SHAKE stats (type/ave/delta) on step 60000
  2 1.09002 1.79083e-06
  4 0.945022 0
  5 1.00002 6.66539e-06
  6 109.47 0.000828271
---------------- Step    60000 ----- CPU =    168.0648 (sec) ----------------
TotEng   =     -3381.1217 KinEng   =       637.6220 Temp     =       294.3701 
PotEng   =     -4018.7436 E_bond   =         1.2110 E_angle  =         4.6853 
E_dihed  =         1.1334 E_impro  =         0.0000 E_vdwl   =       772.8993 
E_coul   =     14699.4676 E_long   =    -19498.1402 Press    =       389.3197 
Volume   =     10841.0034 
SHAKE stats (type/ave/delta) on step 65000
  2 1.09011 2.87824e-07
  4 0.945091 1.77636e-15
  5 1.0001 4.24116e-06
  6 109.47 0.000377026
---------------- Step    65000 ----- CPU =    183.3562 (sec) ----------------
TotEng   =     -3410.4394 KinEng   =       641.7895 Temp     =       296.2941 
PotEng   =     -4052.2289 E_bond   =         0.0306 E_angle  =         5.6721 
E_dihed  =         0.3230 E_impro  =         0.0000 E_vdwl   =       767.6994 
E_coul   =     14670.7992 E_long   =    -19496.7533 Press    =      -309.4409 
Volume   =     10958.0353 
SHAKE stats (type/ave/delta) on step 70000
  2 1.09013 4.29978e-06
  4 0.945112 0
  5 1.00012 1.01417e-05
  6 109.47 0.00054956
---------------- Step    70000 ----- CPU =    198.4096 (sec) ----------------
TotEng   =     -3361.9351 KinEng   =       648.6342 Temp     =       299.4541 
PotEng   =     -4010.5693 E_bond   =         0.6620 E_angle  =         3.3016 
E_dihed  =         0.8263 E_impro  =         0.0000 E_vdwl   =       775.8436 
E_coul   =     14706.2398 E_long   =    -19497.4427 Press    =      -246.5598 
Volume   =     11351.8922 
SHAKE stats (type/ave/delta) on step 75000
  2 1.09009 2.67275e-06
  4 0.94508 0
  5 1.00009 8.03722e-06
  6 109.47 0.000602198
---------------- Step    75000 ----- CPU =    212.5360 (sec) ----------------
TotEng   =     -3415.3618 KinEng   =       622.4454 Temp     =       287.3636 
PotEng   =     -4037.8071 E_bond   =         0.7785 E_angle  =         2.5170 
E_dihed  =         0.4907 E_impro  =         0.0000 E_vdwl   =       758.4538 
E_coul   =     14696.8226 E_long   =    -19496.8698 Press    =      -732.8030 
Volume   =     11189.2592 
SHAKE stats (type/ave/delta) on step 80000
  2 1.08993 1.02596e-06
  4 0.944941 0
  5 0.999939 5.62979e-06
  6 109.47 0.00058533
---------------- Step    80000 ----- CPU =    225.9603 (sec) ----------------
TotEng   =     -3358.9313 KinEng   =       656.0720 Temp     =       302.8879 
PotEng   =     -4015.0032 E_bond   =         0.1708 E_angle  =         1.7962 
E_dihed  =         0.6587 E_impro  =         0.0000 E_vdwl   =       694.1392 
E_coul   =     14787.5553 E_long   =    -19499.3234 Press    =      -978.2328 
Volume   =     10760.7636 
SHAKE stats (type/ave/delta) on step 85000
  2 1.08997 1.94137e-06
  4 0.944971 0
  5 0.999971 5.15598e-06
  6 109.47 0.000483235
---------------- Step    85000 ----- CPU =    240.3396 (sec) ----------------
TotEng   =     -3312.8252 KinEng   =       675.2205 Temp     =       311.7282 
PotEng   =     -3988.0457 E_bond   =         0.8656 E_angle  =         4.6273 
E_dihed  =         1.1293 E_impro  =         0.0000 E_vdwl   =       737.0750 
E_coul   =     14764.4471 E_long   =    -19496.1900 Press    =      -288.7513 
Volume   =     10928.2519 
SHAKE stats (type/ave/delta) on step 90000
  2 1.08999 4.03339e-08
  4 0.944992 0
  5 0.999992 3.92225e-06
  6 109.47 0.000341235
---------------- Step    90000 ----- CPU =    254.8043 (sec) ----------------
TotEng   =     -3374.0084 KinEng   =       669.3966 Temp     =       309.0395 
PotEng   =     -4043.4050 E_bond   =         0.1414 E_angle  =         3.4231 
E_dihed  =         0.2177 E_impro  =         0.0000 E_vdwl   =       815.6936 
E_coul   =     14632.7510 E_long   =    -19495.6319 Press    =       876.7543 
Volume   =     10826.9114 
SHAKE stats (type/ave/delta) on step 95000
  2 1.09002 3.12672e-06
  4 0.945014 0
  5 1.00002 1.29936e-05
  6 109.47 0.000797337
---------------- Step    95000 ----- CPU =    269.0370 (sec) ----------------
TotEng   =     -3426.9444 KinEng   =       644.8725 Temp     =       297.7174 
PotEng   =     -4071.8168 E_bond   =         0.2740 E_angle  =         2.3457 
E_dihed  =         1.1543 E_impro  =         0.0000 E_vdwl   =       819.3120 
E_coul   =     14604.2574 E_long   =    -19499.1603 Press    =       476.5761 
Volume   =     11003.9323 
SHAKE stats (type/ave/delta) on step 100000
  2 1.08991 2.678e-06
  4 0.944921 0
  5 0.999918 1.03211e-05
  6 109.47 0.000774004
---------------- Step   100000 ----- CPU =    282.9616 (sec) ----------------
TotEng   =     -3402.4369 KinEng   =       641.9930 Temp     =       296.3881 
PotEng   =     -4044.4299 E_bond   =         0.6546 E_angle  =         3.5225 
E_dihed  =         0.4458 E_impro  =         0.0000 E_vdwl   =       774.3497 
E_coul   =     14675.8947 E_long   =    -19499.2972 Press    =      -145.3736 
Volume   =     11059.4314 
SHAKE stats (type/ave/delta) on step 105000
  2 1.09001 1.17237e-06
  4 0.945008 0
  5 1.00001 6.44202e-06
  6 109.47 0.000660132
---------------- Step   105000 ----- CPU =    297.0904 (sec) ----------------
TotEng   =     -3341.2980 KinEng   =       684.5782 Temp     =       316.0483 
PotEng   =     -4025.8762 E_bond   =         0.4939 E_angle  =         3.0517 
E_dihed  =         2.0197 E_impro  =         0.0000 E_vdwl   =       789.8665 
E_coul   =     14675.9571 E_long   =    -19497.2652 Press    =       942.5112 
Volume   =     10662.8570 
SHAKE stats (type/ave/delta) on step 110000
  2 1.09002 2.10539e-06
  4 0.945014 0
  5 1.00002 5.98357e-06
  6 109.47 0.000590294
---------------- Step   110000 ----- CPU =    310.9962 (sec) ----------------
TotEng   =     -3391.1473 KinEng   =       651.5915 Temp     =       300.8194 
PotEng   =     -4042.7388 E_bond   =         0.2515 E_angle  =         3.4636 
E_dihed  =         0.6750 E_impro  =         0.0000 E_vdwl   =       770.5905 
E_coul   =     14679.4959 E_long   =    -19497.2154 Press    =      -258.6011 
Volume   =     11068.5430 
SHAKE stats (type/ave/delta) on step 115000
  2 1.09003 7.14483e-07
  4 0.94503 0
  5 1.00003 6.07484e-06
  6 109.47 0.000520157
---------------- Step   115000 ----- CPU =    324.9712 (sec) ----------------
TotEng   =     -3341.9801 KinEng   =       661.7150 Temp     =       305.4931 
PotEng   =     -4003.6950 E_bond   =         1.1494 E_angle  =         4.3995 
E_dihed  =         0.7297 E_impro  =         0.0000 E_vdwl   =       753.2002 
E_coul   =     14734.0583 E_long   =    -19497.2321 Press    =      -209.2785 
Volume   =     10930.1568 
SHAKE stats (type/ave/delta) on step 120000
  2 1.09008 2.0131e-06
  4 0.945072 1.55431e-15
  5 1.00008 5.56678e-06
  6 109.47 0.000719887
---------------- Step   120000 ----- CPU =    338.6945 (sec) ----------------
TotEng   =     -3350.5088 KinEng   =       668.6554 Temp     =       308.6973 
PotEng   =     -4019.1642 E_bond   =         0.8272 E_angle  =         2.7691 
E_dihed  =         1.1709 E_impro  =         0.0000 E_vdwl   =       743.8074 
E_coul   =     14729.5710 E_long   =    -19497.3099 Press    =      -357.6083 
Volume   =     10940.8895 
SHAKE stats (type/ave/delta) on step 125000
  2 1.09004 6.51772e-07
  4 0.945033 0
  5 1.00004 6.10953e-06
  6 109.47 0.000512056
---------------- Step   125000 ----- CPU =    352.8034 (sec) ----------------
TotEng   =     -3353.3656 KinEng   =       680.9699 Temp     =       314.3825 
PotEng   =     -4034.3355 E_bond   =         1.2459 E_angle  =         3.2463 
E_dihed  =         0.7370 E_impro  =         0.0000 E_vdwl   =       826.5954 
E_coul   =     14631.8954 E_long   =    -19498.0555 Press    =      1073.1341 
Volume   =     10993.5009 
SHAKE stats (type/ave/delta) on step 130000
  2 1.09012 3.10521e-07
  4 0.945104 0
  5 1.00011 4.06797e-06
  6 109.47 0.000444836
---------------- Step   130000 ----- CPU =    366.8373 (sec) ----------------
TotEng   =     -3329.8826 KinEng   =       661.7843 Temp     =       305.5251 
PotEng   =     -3991.6668 E_bond   =         0.6753 E_angle  =         5.9518 
E_dihed  =         0.1442 E_impro  =         0.0000 E_vdwl   =       749.9335 
E_coul   =     14747.9037 E_long   =    -19496.2753 Press    =      -296.6572 
Volume   =     11062.9699 
SHAKE stats (type/ave/delta) on step 135000
  2 1.08988 1.30596e-06
  4 0.944895 0
  5 0.99989 7.20373e-06
  6 109.47 0.000498616
---------------- Step   135000 ----- CPU =    380.5896 (sec) ----------------
TotEng   =     -3369.1904 KinEng   =       626.3411 Temp     =       289.1621 
PotEng   =     -3995.5315 E_bond   =         1.2906 E_angle  =         6.6346 
E_dihed  =         0.4328 E_impro  =         0.0000 E_vdwl   =       766.2488 
E_coul   =     14727.0486 E_long   =    -19497.1869 Press    =       -83.6264 
Volume   =     10996.4349 
SHAKE stats (type/ave/delta) on step 140000
  2 1.08993 1.03546e-06
  4 0.944936 0
  5 0.999933 4.39775e-06
  6 109.47 0.000402611
---------------- Step   140000 ----- CPU =    394.2481 (sec) ----------------
TotEng   =     -3312.8892 KinEng   =       670.5163 Temp     =       309.5564 
PotEng   =     -3983.4056 E_bond   =         0.1377 E_angle  =         3.7711 
E_dihed  =         0.9689 E_impro  =         0.0000 E_vdwl   =       721.1270 
E_coul   =     14786.0219 E_long   =    -19495.4321 Press    =      -791.8811 
Volume   =     11173.1467 
SHAKE stats (type/ave/delta) on step 145000
  2 1.09 2.7802e-06
  4 0.944998 0
  5 0.999999 5.82889e-06
  6 109.47 0.000503307
---------------- Step   145000 ----- CPU =    407.6950 (sec) ----------------
TotEng   =     -3386.4892 KinEng   =       659.0457 Temp     =       304.2608 
PotEng   =     -4045.5349 E_bond   =         0.4012 E_angle  =         6.4836 
E_dihed  =         0.6664 E_impro  =         0.0000 E_vdwl   =       749.2329 
E_coul   =     14694.9578 E_long   =    -19497.2768 Press    =      -777.2810 
Volume   =     11030.6275 
SHAKE stats (type/ave/delta) on step 150000
  2 1.09007 1.40495e-06
  4 0.945063 0
  5 1.00007 3.97225e-06
  6 109.47 0.000394372
---------------- Step   150000 ----- CPU =    421.3408 (sec) ----------------
TotEng   =     -3445.6834 KinEng   =       626.4062 Temp     =       289.1921 
PotEng   =     -4072.0895 E_bond   =         0.5037 E_angle  =         5.9024 
E_dihed  =         1.0073 E_impro  =         0.0000 E_vdwl   =       794.2673 
E_coul   =     14619.5305 E_long   =    -19493.3007 Press    =       -43.7926 
Volume   =     10956.9005 
SHAKE stats (type/ave/delta) on step 155000
  2 1.08994 7.0405e-06
  4 0.944954 0
  5 0.999949 1.49163e-05
  6 109.47 0.00151474
---------------- Step   155000 ----- CPU =    436.1742 (sec) ----------------
TotEng   =     -3369.2141 KinEng   =       669.4950 Temp     =       309.0849 
PotEng   =     -4038.7091 E_bond   =         0.4801 E_angle  =         4.9690 
E_dihed  =         0.9991 E_impro  =         0.0000 E_vdwl   =       748.3186 
E_coul   =     14705.3602 E_long   =    -19498.8360 Press    =      -835.6129 
Volume   =     11183.7088 
SHAKE stats (type/ave/delta) on step 160000
  2 1.08988 1.90591e-06
  4 0.944892 0
  5 0.999887 7.58783e-06
  6 109.47 0.000841532
---------------- Step   160000 ----- CPU =    450.9083 (sec) ----------------
TotEng   =     -3371.7204 KinEng   =       670.3753 Temp     =       309.4913 
PotEng   =     -4042.0957 E_bond   =         0.0189 E_angle  =         8.0299 
E_dihed  =         1.7604 E_impro  =         0.0000 E_vdwl   =       804.5837 
E_coul   =     14642.3052 E_long   =    -19498.7938 Press    =       878.2912 
Volume   =     10788.4402 
SHAKE stats (type/ave/delta) on step 165000
  2 1.08999 4.3046e-06
  4 0.944994 0
  5 0.999995 9.78918e-06
  6 109.47 0.000783237
---------------- Step   165000 ----- CPU =    464.5953 (sec) ----------------
TotEng   =     -3415.5442 KinEng   =       624.8459 Temp     =       288.4718 
PotEng   =     -4040.3901 E_bond   =         0.1274 E_angle  =         7.5345 
E_dihed  =         0.2840 E_impro  =         0.0000 E_vdwl   =       795.7086 
E_coul   =     14654.7864 E_long   =    -19498.8310 Press    =       607.9581 
Volume   =     10945.6023 
SHAKE stats (type/ave/delta) on step 170000
  2 1.08999 4.7273e-07
  4 0.944991 0
  5 0.999991 4.87899e-06
  6 109.47 0.000424791
---------------- Step   170000 ----- CPU =    478.1245 (sec) ----------------
TotEng   =     -3431.9921 KinEng   =       641.9664 Temp     =       296.3758 
PotEng   =     -4073.9584 E_bond   =         0.5418 E_angle  =         4.0389 
E_dihed  =         1.0746 E_impro  =         0.0000 E_vdwl   =       802.5722 
E_coul   =     14613.9116 E_long   =    -19496.0976 Press    =       345.1520 
Volume   =     11047.7661 
SHAKE stats (type/ave/delta) on step 175000
  2 1.08996 3.09616e-07
  4 0.944967 0
  5 0.999966 5.35434e-06
  6 109.47 0.000449192
---------------- Step   175000 ----- CPU =    492.0662 (sec) ----------------
TotEng   =     -3365.3750 KinEng   =       657.7171 Temp     =       303.6474 
PotEng   =     -4023.0921 E_bond   =         0.3258 E_angle  =         7.0782 
E_dihed  =         0.6486 E_impro  =         0.0000 E_vdwl   =       739.5573 
E_coul   =     14726.3838 E_long   =    -19497.0857 Press    =      -472.5664 
Volume   =     10947.6903 
SHAKE stats (type/ave/delta) on step 180000
  2 1.08999 2.64965e-06
  4 0.944989 0
  5 0.999989 1.01533e-05
  6 109.47 0.000560004
---------------- Step   180000 ----- CPU =    505.7776 (sec) ----------------
TotEng   =     -3290.5714 KinEng   =       651.8848 Temp     =       300.9548 
PotEng   =     -3942.4562 E_bond   =         0.8426 E_angle  =         5.9392 
E_dihed  =         0.5012 E_impro  =         0.0000 E_vdwl   =       739.1174 
E_coul   =     14810.3903 E_long   =    -19499.2470 Press    =       593.1222 
Volume   =     10804.2327 
SHAKE stats (type/ave/delta) on step 185000
  2 1.08998 1.0989e-06
  4 0.944985 1.77636e-15
  5 0.999981 6.7265e-06
  6 109.47 0.000621144
---------------- Step   185000 ----- CPU =    519.8790 (sec) ----------------
TotEng   =     -3384.6671 KinEng   =       627.9200 Temp     =       289.8910 
PotEng   =     -4012.5871 E_bond   =         0.1754 E_angle  =         2.5407 
E_dihed  =         1.4778 E_impro  =         0.0000 E_vdwl   =       730.4019 
E_coul   =     14751.9189 E_long   =    -19499.1018 Press    =      -666.8460 
Volume   =     11249.9693 
SHAKE stats (type/ave/delta) on step 190000
  2 1.08996 5.91294e-07
  4 0.944969 0
  5 0.999968 6.934e-06
  6 109.47 0.000585692
---------------- Step   190000 ----- CPU =    534.1278 (sec) ----------------
TotEng   =     -3339.4533 KinEng   =       683.0459 Temp     =       315.3409 
PotEng   =     -4022.4992 E_bond   =         0.6179 E_angle  =         3.2194 
E_dihed  =         0.9035 E_impro  =         0.0000 E_vdwl   =       765.4813 
E_coul   =     14704.5174 E_long   =    -19497.2387 Press    =       569.1813 
Volume   =     10786.4661 
SHAKE stats (type/ave/delta) on step 195000
  2 1.08998 5.20582e-07
  4 0.944979 0
  5 0.999979 3.70132e-06
  6 109.47 0.000379431
---------------- Step   195000 ----- CPU =    548.4702 (sec) ----------------
TotEng   =     -3369.4693 KinEng   =       657.5744 Temp     =       303.5815 
PotEng   =     -4027.0437 E_bond   =         0.0793 E_angle  =         2.0285 
E_dihed  =         0.0634 E_impro  =         0.0000 E_vdwl   =       738.0722 
E_coul   =     14730.8111 E_long   =    -19498.0982 Press    =      -715.0225 
Volume   =     11133.9214 
SHAKE stats (type/ave/delta) on step 200000
  2 1.08995 2.0673e-06
  4 0.944958 0
  5 0.999955 1.04563e-05
  6 109.47 0.000957901
---------------- Step   200000 ----- CPU =    562.6102 (sec) ----------------
TotEng   =     -3319.9300 KinEng   =       670.6387 Temp     =       309.6129 
PotEng   =     -3990.5687 E_bond   =         0.3918 E_angle  =         5.0154 
E_dihed  =         0.9503 E_impro  =         0.0000 E_vdwl   =       725.4426 
E_coul   =     14775.8586 E_long   =    -19498.2275 Press    =      -315.2703 
Volume   =     10935.9197 
SHAKE stats (type/ave/delta) on step 205000
  2 1.09014 1.39469e-06
  4 0.945123 0
  5 1.00013 1.05401e-05
  6 109.47 0.00105029
---------------- Step   205000 ----- CPU =    577.0170 (sec) ----------------
TotEng   =     -3444.4592 KinEng   =       623.4885 Temp     =       287.8451 
PotEng   =     -4067.9476 E_bond   =         0.2188 E_angle  =         3.7236 
E_dihed  =         1.0640 E_impro  =         0.0000 E_vdwl   =       741.4236 
E_coul   =     14681.0373 E_long   =    -19495.4151 Press    =      -269.3837 
Volume   =     10604.6119 
SHAKE stats (type/ave/delta) on step 210000
  2 1.08998 3.13722e-07
  4 0.944985 0
  5 0.999985 3.97468e-06
  6 109.47 0.00038555
---------------- Step   210000 ----- CPU =    591.7162 (sec) ----------------
TotEng   =     -3368.0190 KinEng   =       638.2357 Temp     =       294.6535 
PotEng   =     -4006.2547 E_bond   =         0.4683 E_angle  =         3.4317 
E_dihed  =         0.3667 E_impro  =         0.0000 E_vdwl   =       793.7797 
E_coul   =     14692.1513 E_long   =    -19496.4524 Press    =       385.1587 
Volume   =     11236.3349 
SHAKE stats (type/ave/delta) on step 215000
  2 1.09006 9.89909e-07
  4 0.945055 0
  5 1.00006 4.4655e-06
  6 109.47 0.000431384
---------------- Step   215000 ----- CPU =    606.3146 (sec) ----------------
TotEng   =     -3436.5690 KinEng   =       638.6793 Temp     =       294.8583 
PotEng   =     -4075.2483 E_bond   =         0.6061 E_angle  =         4.4857 
E_dihed  =         0.1387 E_impro  =         0.0000 E_vdwl   =       776.3486 
E_coul   =     14639.8107 E_long   =    -19496.6381 Press    =      -102.4349 
Volume   =     11034.5592 
SHAKE stats (type/ave/delta) on step 220000
  2 1.08997 4.30708e-06
  4 0.944979 0
  5 0.999973 1.53338e-05
  6 109.47 0.00137111
---------------- Step   220000 ----- CPU =    620.3985 (sec) ----------------
TotEng   =     -3395.5318 KinEng   =       649.4950 Temp     =       299.8515 
PotEng   =     -4045.0268 E_bond   =         0.9925 E_angle  =         5.5977 
E_dihed  =         0.2911 E_impro  =         0.0000 E_vdwl   =       811.0912 
E_coul   =     14635.2069 E_long   =    -19498.2061 Press    =       523.7115 
Volume   =     11060.9412 
SHAKE stats (type/ave/delta) on step 225000
  2 1.08993 7.14238e-07
  4 0.94494 8.88178e-16
  5 0.999936 6.42578e-06
  6 109.47 0.000761392
---------------- Step   225000 ----- CPU =    634.5946 (sec) ----------------
TotEng   =     -3401.8558 KinEng   =       664.2564 Temp     =       306.6664 
PotEng   =     -4066.1122 E_bond   =         0.0787 E_angle  =         8.1152 
E_dihed  =         1.8503 E_impro  =         0.0000 E_vdwl   =       822.2907 
E_coul   =     14601.4866 E_long   =    -19499.9338 Press    =      1052.6676 
Volume   =     10812.9838 
SHAKE stats (type/ave/delta) on step 230000
  2 1.09002 1.96037e-06
  4 0.945016 0
  5 1.00002 7.06115e-06
  6 109.47 0.000609511
---------------- Step   230000 ----- CPU =    649.0908 (sec) ----------------
TotEng   =     -3313.8744 KinEng   =       677.2200 Temp     =       312.6513 
PotEng   =     -3991.0944 E_bond   =         0.9795 E_angle  =         5.3648 
E_dihed  =         0.7126 E_impro  =         0.0000 E_vdwl   =       774.9787 
E_coul   =     14722.6004 E_long   =    -19495.7303 Press    =       238.7174 
Volume   =     11018.3398 
SHAKE stats (type/ave/delta) on step 235000
  2 1.08996 2.95607e-06
  4 0.944963 0
  5 0.999961 9.05347e-06
  6 109.47 0.000812681
---------------- Step   235000 ----- CPU =    663.4999 (sec) ----------------
TotEng   =     -3428.6448 KinEng   =       652.0041 Temp     =       301.0099 
PotEng   =     -4080.6489 E_bond   =         0.6522 E_angle  =         5.8752 
E_dihed  =         1.3306 E_impro  =         0.0000 E_vdwl   =       788.7520 
E_coul   =     14620.0407 E_long   =    -19497.2996 Press    =        76.7903 
Volume   =     11065.8309 
SHAKE stats (type/ave/delta) on step 240000
  2 1.08997 2.05943e-07
  4 0.94497 0
  5 0.999969 3.74421e-06
  6 109.47 0.000381021
---------------- Step   240000 ----- CPU =    677.3539 (sec) ----------------
TotEng   =     -3347.9930 KinEng   =       674.2342 Temp     =       311.2728 
PotEng   =     -4022.2272 E_bond   =         0.0582 E_angle  =         5.6744 
E_dihed  =         0.3417 E_impro  =         0.0000 E_vdwl   =       753.6255 
E_coul   =     14715.5534 E_long   =    -19497.4805 Press    =      -193.8808 
Volume   =     11043.9522 
SHAKE stats (type/ave/delta) on step 245000
  2 1.08998 1.09719e-06
  4 0.944981 0
  5 0.999981 5.38573e-06
  6 109.47 0.000435796
---------------- Step   245000 ----- CPU =    691.0962 (sec) ----------------
TotEng   =     -3401.1674 KinEng   =       633.9981 Temp     =       292.6971 
PotEng   =     -4035.1656 E_bond   =         0.0799 E_angle  =         4.7291 
E_dihed  =         1.0455 E_impro  =         0.0000 E_vdwl   =       770.0376 
E_coul   =     14688.6664 E_long   =    -19499.7241 Press    =      -410.5821 
Volume   =     11220.3330 
SHAKE stats (type/ave/delta) on step 250000
  2 1.08982 9.49787e-07
  4 0.94484 0
  5 0.999835 1.19024e-05
  6 109.47 0.000860497
---------------- Step   250000 ----- CPU =    705.3591 (sec) ----------------
TotEng   =     -3344.1111 KinEng   =       678.4513 Temp     =       313.2197 
PotEng   =     -4022.5624 E_bond   =         0.3707 E_angle  =         2.8079 
E_dihed  =         0.4717 E_impro  =         0.0000 E_vdwl   =       725.6778 
E_coul   =     14747.3632 E_long   =    -19499.2538 Press    =      -871.0484 
Volume   =     11170.9446 
SHAKE stats (type/ave/delta) on step 255000
  2 1.08993 8.32906e-07
  4 0.944942 0
  5 0.99994 7.06059e-06
  6 109.47 0.000575288
---------------- Step   255000 ----- CPU =    718.4653 (sec) ----------------
TotEng   =     -3355.3719 KinEng   =       679.3952 Temp     =       313.6555 
PotEng   =     -4034.7671 E_bond   =         1.2102 E_angle  =         3.0616 
E_dihed  =         0.7768 E_impro  =         0.0000 E_vdwl   =       821.7289 
E_coul   =     14638.4580 E_long   =    -19500.0026 Press    =      1124.2848 
Volume   =     10953.2154 
SHAKE stats (type/ave/delta) on step 260000
  2 1.08988 2.58975e-06
  4 0.944896 0
  5 0.99989 9.84863e-06
  6 109.47 0.000735355
---------------- Step   260000 ----- CPU =    731.5162 (sec) ----------------
TotEng   =     -3404.2992 KinEng   =       621.0069 Temp     =       286.6994 
PotEng   =     -4025.3061 E_bond   =         0.4377 E_angle  =         2.7702 
E_dihed  =         0.7201 E_impro  =         0.0000 E_vdwl   =       810.1774 
E_coul   =     14655.5325 E_long   =    -19494.9440 Press    =      1005.0962 
Volume   =     10855.4115 
SHAKE stats (type/ave/delta) on step 265000
  2 1.09005 1.79288e-06
  4 0.945046 0
  5 1.00005 7.14624e-06
  6 109.47 0.000587727
---------------- Step   265000 ----- CPU =    744.6546 (sec) ----------------
TotEng   =     -3364.6764 KinEng   =       623.5795 Temp     =       287.8872 
PotEng   =     -3988.2559 E_bond   =         0.3614 E_angle  =         6.5300 
E_dihed  =         0.3201 E_impro  =         0.0000 E_vdwl   =       763.7235 
E_coul   =     14739.5179 E_long   =    -19498.7087 Press    =       330.5824 
Volume   =     10915.1560 
SHAKE stats (type/ave/delta) on step 270000
  2 1.0901 1.25519e-07
  4 0.945085 0
  5 1.00009 4.17787e-06
  6 109.47 0.000357499
---------------- Step   270000 ----- CPU =    757.6144 (sec) ----------------
TotEng   =     -3367.4924 KinEng   =       640.7529 Temp     =       295.8156 
PotEng   =     -4008.2453 E_bond   =         0.5087 E_angle  =         3.6900 
E_dihed  =         0.2802 E_impro  =         0.0000 E_vdwl   =       723.1124 
E_coul   =     14762.0661 E_long   =    -19497.9026 Press    =      -921.4789 
Volume   =     11098.5512 
SHAKE stats (type/ave/delta) on step 275000
  2 1.09 8.65394e-07
  4 0.944999 0
  5 1 6.5505e-06
  6 109.47 0.000556305
---------------- Step   275000 ----- CPU =    770.6855 (sec) ----------------
TotEng   =     -3351.9406 KinEng   =       638.1913 Temp     =       294.6330 
PotEng   =     -3990.1319 E_bond   =         0.1772 E_angle  =         3.7192 
E_dihed  =         0.5553 E_impro  =         0.0000 E_vdwl   =       744.6149 
E_coul   =     14757.4216 E_long   =    -19496.6201 Press    =      -240.9059 
Volume   =     11116.4977 
SHAKE stats (type/ave/delta) on step 280000
  2 1.08997 2.40012e-06
  4 0.944974 0
  5 0.999973 8.62292e-06
  6 109.47 0.000712066
---------------- Step   280000 ----- CPU =    784.5147 (sec) ----------------
TotEng   =     -3396.7010 KinEng   =       642.5285 Temp     =       296.6353 
PotEng   =     -4039.2295 E_bond   =         0.2100 E_angle  =         4.9343 
E_dihed  =         3.5328 E_impro  =         0.0000 E_vdwl   =       786.1246 
E_coul   =     14660.7318 E_long   =    -19494.7630 Press    =       323.3442 
Volume   =     10912.1083 
SHAKE stats (type/ave/delta) on step 285000
  2 1.08996 1.36546e-06
  4 0.944969 0
  5 0.999968 6.13923e-06
  6 109.47 0.000490198
---------------- Step   285000 ----- CPU =    799.1169 (sec) ----------------
TotEng   =     -3373.5079 KinEng   =       631.9872 Temp     =       291.7687 
PotEng   =     -4005.4951 E_bond   =         0.3266 E_angle  =         6.0055 
E_dihed  =         0.4334 E_impro  =         0.0000 E_vdwl   =       784.5112 
E_coul   =     14700.9849 E_long   =    -19497.7569 Press    =      1015.8769 
Volume   =     10680.7102 
SHAKE stats (type/ave/delta) on step 290000
  2 1.09001 2.2392e-07
  4 0.945005 1.66533e-15
  5 1.00001 4.79947e-06
  6 109.47 0.000392301
---------------- Step   290000 ----- CPU =    813.5247 (sec) ----------------
TotEng   =     -3362.6505 KinEng   =       660.8762 Temp     =       305.1059 
PotEng   =     -4023.5266 E_bond   =         0.5452 E_angle  =         3.5815 
E_dihed  =         1.3702 E_impro  =         0.0000 E_vdwl   =       794.2218 
E_coul   =     14674.1694 E_long   =    -19497.4148 Press    =       249.2196 
Volume   =     11037.7212 
SHAKE stats (type/ave/delta) on step 295000
  2 1.08995 8.38009e-07
  4 0.94496 0
  5 0.999958 4.49574e-06
  6 109.47 0.00040697
---------------- Step   295000 ----- CPU =    827.9713 (sec) ----------------
TotEng   =     -3443.0654 KinEng   =       621.8224 Temp     =       287.0759 
PotEng   =     -4064.8878 E_bond   =         0.2298 E_angle  =         4.1819 
E_dihed  =         0.1234 E_impro  =         0.0000 E_vdwl   =       772.1020 
E_coul   =     14657.0292 E_long   =    -19498.5542 Press    =      -458.8992 
Volume   =     11026.0100 
SHAKE stats (type/ave/delta) on step 300000
  2 1.08987 7.73487e-08
  4 0.944888 1.44329e-15
  5 0.999883 3.65245e-06
  6 109.47 0.000344291
---------------- Step   300000 ----- CPU =    842.6114 (sec) ----------------
TotEng   =     -3291.9516 KinEng   =       698.2480 Temp     =       322.3593 
PotEng   =     -3990.1995 E_bond   =         1.8100 E_angle  =         3.7500 
E_dihed  =         0.7008 E_impro  =         0.0000 E_vdwl   =       659.2451 
E_coul   =     14841.9824 E_long   =    -19497.6879 Press    =     -1623.0803 
Volume   =     10965.0778 
SHAKE stats (type/ave/delta) on step 305000
  2 1.09009 6.55622e-07
  4 0.945076 1.33227e-15
  5 1.00008 6.61887e-06
  6 109.47 0.000626111
---------------- Step   305000 ----- CPU =    856.9377 (sec) ----------------
TotEng   =     -3397.6887 KinEng   =       658.0560 Temp     =       303.8039 
PotEng   =     -4055.7447 E_bond   =         0.0889 E_angle  =         2.2712 
E_dihed  =         1.3105 E_impro  =         0.0000 E_vdwl   =       765.9594 
E_coul   =     14669.3624 E_long   =    -19494.7371 Press    =      -225.2878 
Volume   =     10856.0112 
SHAKE stats (type/ave/delta) on step 310000
  2 1.08993 1.06218e-06
  4 0.944936 2.88658e-15
  5 0.999933 7.02916e-06
  6 109.47 0.00101961
---------------- Step   310000 ----- CPU =    871.0982 (sec) ----------------
TotEng   =     -3415.9801 KinEng   =       637.1333 Temp     =       294.1445 
PotEng   =     -4053.1134 E_bond   =         1.1571 E_angle  =         2.7693 
E_dihed  =         0.6349 E_impro  =         0.0000 E_vdwl   =       764.4248 
E_coul   =     14675.2422 E_long   =    -19497.3416 Press    =      -336.7981 
Volume   =     10951.5366 
SHAKE stats (type/ave/delta) on step 315000
  2 1.08999 1.42788e-06
  4 0.944994 0
  5 0.999993 8.17566e-06
  6 109.47 0.000782653
---------------- Step   315000 ----- CPU =    885.4870 (sec) ----------------
TotEng   =     -3430.9051 KinEng   =       602.8090 Temp     =       278.2981 
PotEng   =     -4033.7141 E_bond   =         0.5901 E_angle  =         3.3361 
E_dihed  =         1.3791 E_impro  =         0.0000 E_vdwl   =       747.5430 
E_coul   =     14711.3059 E_long   =    -19497.8683 Press    =      -410.9813 
Volume   =     10874.2357 
SHAKE stats (type/ave/delta) on step 320000
  2 1.08996 4.44743e-06
  4 0.944963 0
  5 0.999961 6.61242e-06
  6 109.47 0.000599799
---------------- Step   320000 ----- CPU =    899.8637 (sec) ----------------
TotEng   =     -3295.0663 KinEng   =       658.0061 Temp     =       303.7808 
PotEng   =     -3953.0724 E_bond   =         0.2773 E_angle  =         5.0614 
E_dihed  =         0.1170 E_impro  =         0.0000 E_vdwl   =       718.6125 
E_coul   =     14815.8426 E_long   =    -19492.9832 Press    =      -316.8529 
Volume   =     11021.2326 
SHAKE stats (type/ave/delta) on step 325000
  2 1.08995 2.75303e-07
  4 0.944954 0
  5 0.999953 6.05046e-06
  6 109.47 0.000504661
---------------- Step   325000 ----- CPU =    914.0889 (sec) ----------------
TotEng   =     -3411.1288 KinEng   =       641.6824 Temp     =       296.2447 
PotEng   =     -4052.8112 E_bond   =         1.9756 E_angle  =         3.3009 
E_dihed  =         1.3052 E_impro  =         0.0000 E_vdwl   =       821.9834 
E_coul   =     14615.8846 E_long   =    -19497.2609 Press    =       563.1157 
Volume   =     11168.0370 
SHAKE stats (type/ave/delta) on step 330000
  2 1.08991 8.58964e-07
  4 0.94492 0
  5 0.999917 4.2789e-06
  6 109.47 0.000440357
---------------- Step   330000 ----- CPU =    928.3571 (sec) ----------------
TotEng   =     -3346.7365 KinEng   =       670.0685 Temp     =       309.3497 
PotEng   =     -4016.8051 E_bond   =         0.6573 E_angle  =         3.2001 
E_dihed  =         0.2378 E_impro  =         0.0000 E_vdwl   =       776.6072 
E_coul   =     14701.4505 E_long   =    -19498.9580 Press    =       160.2631 
Volume   =     11002.7260 
SHAKE stats (type/ave/delta) on step 335000
  2 1.09001 1.21025e-06
  4 0.94501 0
  5 1.00001 6.02632e-06
  6 109.47 0.000735988
---------------- Step   335000 ----- CPU =    942.6822 (sec) ----------------
TotEng   =     -3360.1948 KinEng   =       644.8193 Temp     =       297.6929 
PotEng   =     -4005.0141 E_bond   =         0.9316 E_angle  =         3.9571 
E_dihed  =         0.9554 E_impro  =         0.0000 E_vdwl   =       740.5746 
E_coul   =     14745.7926 E_long   =    -19497.2254 Press    =      -705.5961 
Volume   =     11189.6335 
SHAKE stats (type/ave/delta) on step 340000
  2 1.09013 7.64096e-07
  4 0.945109 1.66533e-15
  5 1.00012 8.60006e-06
  6 109.47 0.00073917
---------------- Step   340000 ----- CPU =    956.4870 (sec) ----------------
TotEng   =     -3336.4439 KinEng   =       665.4662 Temp     =       307.2250 
PotEng   =     -4001.9101 E_bond   =         0.6465 E_angle  =         3.5951 
E_dihed  =         0.6318 E_impro  =         0.0000 E_vdwl   =       750.4787 
E_coul   =     14740.9372 E_long   =    -19498.1995 Press    =        38.5245 
Volume   =     10922.9316 
SHAKE stats (type/ave/delta) on step 345000
  2 1.08998 3.88043e-07
  4 0.944981 0
  5 0.999981 4.98952e-06
  6 109.47 0.000454375
---------------- Step   345000 ----- CPU =    970.6125 (sec) ----------------
TotEng   =     -3392.1775 KinEng   =       638.0302 Temp     =       294.5586 
PotEng   =     -4030.2077 E_bond   =         0.6893 E_angle  =         5.3106 
E_dihed  =         0.0725 E_impro  =         0.0000 E_vdwl   =       725.1824 
E_coul   =     14735.9212 E_long   =    -19497.3837 Press    =      -931.7358 
Volume   =     11046.6794 
SHAKE stats (type/ave/delta) on step 350000
  2 1.08986 7.264e-07
  4 0.944881 0
  5 0.999876 4.41439e-06
  6 109.47 0.000430646
---------------- Step   350000 ----- CPU =    985.5129 (sec) ----------------
TotEng   =     -3340.7073 KinEng   =       675.5967 Temp     =       311.9019 
PotEng   =     -4016.3040 E_bond   =         0.4826 E_angle  =         5.6918 
E_dihed  =         3.0445 E_impro  =         0.0000 E_vdwl   =       785.0171 
E_coul   =     14686.1476 E_long   =    -19496.6875 Press    =       616.1732 
Volume   =     10884.2020 
SHAKE stats (type/ave/delta) on step 355000
  2 1.08997 1.80615e-07
  4 0.944974 0
  5 0.999974 4.62436e-06
  6 109.47 0.000362494
---------------- Step   355000 ----- CPU =   1000.0756 (sec) ----------------
TotEng   =     -3404.3843 KinEng   =       651.0155 Temp     =       300.5535 
PotEng   =     -4055.3998 E_bond   =         1.9156 E_angle  =         5.6905 
E_dihed  =         0.2234 E_impro  =         0.0000 E_vdwl   =       771.5734 
E_coul   =     14662.0801 E_long   =    -19496.8829 Press    =       575.7913 
Volume   =     10603.6019 
SHAKE stats (type/ave/delta) on step 360000
  2 1.09 1.04385e-06
  4 0.944996 0
  5 0.999997 7.90501e-06
  6 109.47 0.00053449
---------------- Step   360000 ----- CPU =   1014.1980 (sec) ----------------
TotEng   =     -3384.7257 KinEng   =       619.4366 Temp     =       285.9745 
PotEng   =     -4004.1622 E_bond   =         1.0442 E_angle  =         4.3854 
E_dihed  =         1.2301 E_impro  =         0.0000 E_vdwl   =       735.2768 
E_coul   =     14751.0988 E_long   =    -19497.1975 Press    =      -400.0135 
Volume   =     10939.1500 
SHAKE stats (type/ave/delta) on step 365000
  2 1.08998 8.6661e-07
  4 0.944986 0
  5 0.999986 4.64655e-06
  6 109.47 0.000418634
---------------- Step   365000 ----- CPU =   1028.6230 (sec) ----------------
TotEng   =     -3389.0471 KinEng   =       665.7661 Temp     =       307.3634 
PotEng   =     -4054.8132 E_bond   =         0.6350 E_angle  =         7.1301 
E_dihed  =         0.8408 E_impro  =         0.0000 E_vdwl   =       837.9934 
E_coul   =     14592.8391 E_long   =    -19494.2514 Press    =       964.4954 
Volume   =     10946.7309 
SHAKE stats (type/ave/delta) on step 370000
  2 1.09007 3.1583e-06
  4 0.945065 1.55431e-15
  5 1.00007 7.5409e-06
  6 109.47 0.000625972
---------------- Step   370000 ----- CPU =   1043.2568 (sec) ----------------
TotEng   =     -3414.0238 KinEng   =       639.0117 Temp     =       295.0117 
PotEng   =     -4053.0355 E_bond   =         0.3033 E_angle  =         6.5530 
E_dihed  =         1.8503 E_impro  =         0.0000 E_vdwl   =       781.5331 
E_coul   =     14652.9291 E_long   =    -19496.2043 Press    =       172.8552 
Volume   =     10809.3530 
SHAKE stats (type/ave/delta) on step 375000
  2 1.09007 1.20242e-06
  4 0.945059 0
  5 1.00006 8.78133e-06
  6 109.47 0.000660372
---------------- Step   375000 ----- CPU =   1057.4005 (sec) ----------------
TotEng   =     -3444.3744 KinEng   =       629.3258 Temp     =       290.5400 
PotEng   =     -4073.7001 E_bond   =         1.6941 E_angle  =         2.7505 
E_dihed  =         0.8629 E_impro  =         0.0000 E_vdwl   =       772.6951 
E_coul   =     14646.3213 E_long   =    -19498.0240 Press    =      -551.8817 
Volume   =     10973.5656 
SHAKE stats (type/ave/delta) on step 380000
  2 1.08987 1.46335e-07
  4 0.94489 0
  5 0.999885 3.75031e-06
  6 109.47 0.000396144
---------------- Step   380000 ----- CPU =   1070.7836 (sec) ----------------
TotEng   =     -3346.6650 KinEng   =       682.6489 Temp     =       315.1576 
PotEng   =     -4029.3139 E_bond   =         0.0688 E_angle  =         4.8407 
E_dihed  =         0.6718 E_impro  =         0.0000 E_vdwl   =       749.2664 
E_coul   =     14712.4072 E_long   =    -19496.5689 Press    =      -267.8975 
Volume   =     11081.0975 
SHAKE stats (type/ave/delta) on step 385000
  2 1.08998 1.93437e-07
  4 0.944984 0
  5 0.999984 3.81082e-06
  6 109.47 0.000341291
---------------- Step   385000 ----- CPU =   1084.3686 (sec) ----------------
TotEng   =     -3355.9637 KinEng   =       621.3142 Temp     =       286.8413 
PotEng   =     -3977.2779 E_bond   =         0.6905 E_angle  =         2.4133 
E_dihed  =         1.8043 E_impro  =         0.0000 E_vdwl   =       725.3971 
E_coul   =     14789.2291 E_long   =    -19496.8123 Press    =      -359.1843 
Volume   =     10774.8405 
SHAKE stats (type/ave/delta) on step 390000
  2 1.08991 1.78138e-07
  4 0.944922 0
  5 0.999918 4.69939e-06
  6 109.47 0.000389831
---------------- Step   390000 ----- CPU =   1098.1164 (sec) ----------------
TotEng   =     -3356.9825 KinEng   =       626.3865 Temp     =       289.1831 
PotEng   =     -3983.3690 E_bond   =         1.5915 E_angle  =         2.6779 
E_dihed  =         1.3002 E_impro  =         0.0000 E_vdwl   =       778.1289 
E_coul   =     14728.0341 E_long   =    -19495.1017 Press    =       803.6516 
Volume   =     10845.9757 
SHAKE stats (type/ave/delta) on step 395000
  2 1.09016 5.23604e-07
  4 0.945139 0
  5 1.00015 5.73723e-06
  6 109.47 0.00043538
---------------- Step   395000 ----- CPU =   1112.3102 (sec) ----------------
TotEng   =     -3372.3774 KinEng   =       646.8572 Temp     =       298.6337 
PotEng   =     -4019.2346 E_bond   =         0.1243 E_angle  =         3.1524 
E_dihed  =         1.1072 E_impro  =         0.0000 E_vdwl   =       770.1330 
E_coul   =     14704.0801 E_long   =    -19497.8316 Press    =       244.1959 
Volume   =     10945.7651 
SHAKE stats (type/ave/delta) on step 400000
  2 1.09004 4.86806e-08
  4 0.945033 1.77636e-15
  5 1.00004 4.08501e-06
  6 109.47 0.000399003
---------------- Step   400000 ----- CPU =   1126.4045 (sec) ----------------
TotEng   =     -3446.2750 KinEng   =       616.3971 Temp     =       284.5713 
PotEng   =     -4062.6721 E_bond   =         0.1413 E_angle  =         5.5003 
E_dihed  =         0.4236 E_impro  =         0.0000 E_vdwl   =       780.4553 
E_coul   =     14649.0353 E_long   =    -19498.2279 Press    =       282.3471 
Volume   =     10833.4481 
SHAKE stats (type/ave/delta) on step 405000
  2 1.08999 4.13986e-06
  4 0.944994 0
  5 0.999992 6.23078e-06
  6 109.47 0.0005967
---------------- Step   405000 ----- CPU =   1141.1211 (sec) ----------------
TotEng   =     -3346.6360 KinEng   =       628.6981 Temp     =       290.2503 
PotEng   =     -3975.3341 E_bond   =         0.8177 E_angle  =         3.7263 
E_dihed  =         1.0563 E_impro  =         0.0000 E_vdwl   =       755.3431 
E_coul   =     14761.4822 E_long   =    -19497.7598 Press    =      -109.0554 
Volume   =     11021.8592 
SHAKE stats (type/ave/delta) on step 410000
  2 1.09005 2.03375e-07
  4 0.945046 0
  5 1.00005 3.90847e-06
  6 109.47 0.000354456
---------------- Step   410000 ----- CPU =   1155.0447 (sec) ----------------
TotEng   =     -3429.5258 KinEng   =       626.5585 Temp     =       289.2625 
PotEng   =     -4056.0844 E_bond   =         0.2705 E_angle  =         4.2079 
E_dihed  =         0.2698 E_impro  =         0.0000 E_vdwl   =       755.8915 
E_coul   =     14682.6514 E_long   =    -19499.3754 Press    =      -109.5680 
Volume   =     10724.0700 
SHAKE stats (type/ave/delta) on step 415000
  2 1.08989 1.62621e-06
  4 0.944902 0
  5 0.999897 4.73857e-06
  6 109.47 0.000607642
---------------- Step   415000 ----- CPU =   1169.3052 (sec) ----------------
TotEng   =     -3359.6227 KinEng   =       647.9512 Temp     =       299.1388 
PotEng   =     -4007.5739 E_bond   =         0.5878 E_angle  =         3.1948 
E_dihed  =         0.8669 E_impro  =         0.0000 E_vdwl   =       742.3337 
E_coul   =     14742.4757 E_long   =    -19497.0329 Press    =      -313.3897 
Volume   =     10968.0897 
SHAKE stats (type/ave/delta) on step 420000
  2 1.09 1.89154e-06
  4 0.944999 0
  5 0.999999 8.76292e-06
  6 109.47 0.000650996
---------------- Step   420000 ----- CPU =   1183.8182 (sec) ----------------
TotEng   =     -3393.5543 KinEng   =       620.4762 Temp     =       286.4544 
PotEng   =     -4014.0304 E_bond   =         0.2971 E_angle  =         4.2143 
E_dihed  =         1.0812 E_impro  =         0.0000 E_vdwl   =       795.4012 
E_coul   =     14682.9601 E_long   =    -19497.9844 Press    =       989.2070 
Volume   =     10682.5344 
SHAKE stats (type/ave/delta) on step 425000
  2 1.09002 1.90134e-06
  4 0.945022 0
  5 1.00002 1.09408e-05
  6 109.47 0.00113663
---------------- Step   425000 ----- CPU =   1198.5574 (sec) ----------------
TotEng   =     -3368.2323 KinEng   =       671.6224 Temp     =       310.0671 
PotEng   =     -4039.8547 E_bond   =         0.1992 E_angle  =         5.0990 
E_dihed  =         1.0574 E_impro  =         0.0000 E_vdwl   =       806.6768 
E_coul   =     14644.4126 E_long   =    -19497.2996 Press    =       275.4780 
Volume   =     11180.7848 
SHAKE stats (type/ave/delta) on step 430000
  2 1.08995 4.24877e-07
  4 0.944956 0
  5 0.999954 5.22941e-06
  6 109.47 0.00043801
---------------- Step   430000 ----- CPU =   1213.0815 (sec) ----------------
TotEng   =     -3392.9539 KinEng   =       660.9350 Temp     =       305.1330 
PotEng   =     -4053.8889 E_bond   =         0.1392 E_angle  =         3.5873 
E_dihed  =         0.5996 E_impro  =         0.0000 E_vdwl   =       796.5749 
E_coul   =     14642.1082 E_long   =    -19496.8980 Press    =       122.7753 
Volume   =     10925.9352 
SHAKE stats (type/ave/delta) on step 435000
  2 1.08999 1.24674e-06
  4 0.94499 0
  5 0.999989 8.26254e-06
  6 109.47 0.00074503
---------------- Step   435000 ----- CPU =   1227.4419 (sec) ----------------
TotEng   =     -3380.2021 KinEng   =       687.5822 Temp     =       317.4352 
PotEng   =     -4067.7843 E_bond   =         0.2450 E_angle  =         3.5846 
E_dihed  =         1.6926 E_impro  =         0.0000 E_vdwl   =       847.1094 
E_coul   =     14577.1206 E_long   =    -19497.5366 Press    =      1428.6680 
Volume   =     10778.9641 
SHAKE stats (type/ave/delta) on step 440000
  2 1.09006 1.65328e-06
  4 0.945051 0
  5 1.00005 8.28888e-06
  6 109.47 0.000610913
---------------- Step   440000 ----- CPU =   1241.4677 (sec) ----------------
TotEng   =     -3344.5310 KinEng   =       658.5273 Temp     =       304.0215 
PotEng   =     -4003.0583 E_bond   =         0.2173 E_angle  =         4.8665 
E_dihed  =         0.1929 E_impro  =         0.0000 E_vdwl   =       764.6251 
E_coul   =     14723.4745 E_long   =    -19496.4346 Press    =       425.3773 
Volume   =     10865.8959 
SHAKE stats (type/ave/delta) on step 445000
  2 1.09006 3.55694e-06
  4 0.945049 0
  5 1.00005 1.57473e-05
  6 109.47 0.000998562
---------------- Step   445000 ----- CPU =   1255.2402 (sec) ----------------
TotEng   =     -3433.0547 KinEng   =       609.1206 Temp     =       281.2120 
PotEng   =     -4042.1754 E_bond   =         0.0813 E_angle  =         4.4990 
E_dihed  =         0.5412 E_impro  =         0.0000 E_vdwl   =       822.6695 
E_coul   =     14630.7008 E_long   =    -19500.6672 Press    =       745.0506 
Volume   =     10968.2139 
SHAKE stats (type/ave/delta) on step 450000
  2 1.09001 3.13388e-07
  4 0.945006 1.33227e-15
  5 1.00001 5.46479e-06
  6 109.47 0.000421455
---------------- Step   450000 ----- CPU =   1269.2483 (sec) ----------------
TotEng   =     -3382.0940 KinEng   =       627.4211 Temp     =       289.6607 
PotEng   =     -4009.5151 E_bond   =         0.3292 E_angle  =         5.6603 
E_dihed  =         0.8900 E_impro  =         0.0000 E_vdwl   =       821.6491 
E_coul   =     14659.5259 E_long   =    -19497.5695 Press    =      1170.4700 
Volume   =     10973.0211 
SHAKE stats (type/ave/delta) on step 455000
  2 1.0901 1.74736e-06
  4 0.945083 0
  5 1.00009 7.28974e-06
  6 109.47 0.000775464
---------------- Step   455000 ----- CPU =   1283.3330 (sec) ----------------
TotEng   =     -3408.5037 KinEng   =       636.8078 Temp     =       293.9942 
PotEng   =     -4045.3115 E_bond   =         1.8193 E_angle  =         4.1069 
E_dihed  =         0.6427 E_impro  =         0.0000 E_vdwl   =       784.8103 
E_coul   =     14660.3682 E_long   =    -19497.0589 Press    =       370.5683 
Volume   =     10998.5069 
SHAKE stats (type/ave/delta) on step 460000
  2 1.08995 5.21438e-07
  4 0.944957 0
  5 0.999956 5.16244e-06
  6 109.47 0.000473417
---------------- Step   460000 ----- CPU =   1297.8408 (sec) ----------------
TotEng   =     -3437.5448 KinEng   =       633.9205 Temp     =       292.6613 
PotEng   =     -4071.4654 E_bond   =         0.1637 E_angle  =         1.4722 
E_dihed  =         0.7685 E_impro  =         0.0000 E_vdwl   =       697.1937 
E_coul   =     14724.8867 E_long   =    -19495.9501 Press    =     -1600.7788 
Volume   =     10901.3276 
SHAKE stats (type/ave/delta) on step 465000
  2 1.09009 7.70529e-07
  4 0.945079 0
  5 1.00008 4.52338e-06
  6 109.47 0.00041442
---------------- Step   465000 ----- CPU =   1312.3824 (sec) ----------------
TotEng   =     -3386.3150 KinEng   =       639.1568 Temp     =       295.0787 
PotEng   =     -4025.4718 E_bond   =         0.0052 E_angle  =         3.0487 
E_dihed  =         0.0655 E_impro  =         0.0000 E_vdwl   =       734.8882 
E_coul   =     14735.0417 E_long   =    -19498.5211 Press    =      -564.2031 
Volume   =     10909.0300 
SHAKE stats (type/ave/delta) on step 470000
  2 1.09015 2.53984e-07
  4 0.945127 0
  5 1.00014 4.03766e-06
  6 109.47 0.000372952
---------------- Step   470000 ----- CPU =   1327.2318 (sec) ----------------
TotEng   =     -3403.3699 KinEng   =       644.7373 Temp     =       297.6551 
PotEng   =     -4048.1073 E_bond   =         0.8106 E_angle  =         3.2597 
E_dihed  =         0.3858 E_impro  =         0.0000 E_vdwl   =       804.2158 
E_coul   =     14639.3904 E_long   =    -19496.1694 Press    =       186.0866 
Volume   =     11108.3290 
SHAKE stats (type/ave/delta) on step 475000
  2 1.09005 8.22064e-07
  4 0.945042 0
  5 1.00005 6.65348e-06
  6 109.47 0.000562109
---------------- Step   475000 ----- CPU =   1341.9792 (sec) ----------------
TotEng   =     -3372.0833 KinEng   =       625.2415 Temp     =       288.6545 
PotEng   =     -3997.3248 E_bond   =         0.0778 E_angle  =         4.4094 
E_dihed  =         2.7071 E_impro  =         0.0000 E_vdwl   =       778.6635 
E_coul   =     14713.8371 E_long   =    -19497.0198 Press    =       598.8279 
Volume   =     10822.8545 
SHAKE stats (type/ave/delta) on step 480000
  2 1.09009 5.17896e-07
  4 0.945074 1.22125e-15
  5 1.00008 4.21096e-06
  6 109.47 0.000562609
---------------- Step   480000 ----- CPU =   1356.5219 (sec) ----------------
TotEng   =     -3355.8116 KinEng   =       664.4403 Temp     =       306.7513 
PotEng   =     -4020.2519 E_bond   =         0.2740 E_angle  =         3.9629 
E_dihed  =         1.3324 E_impro  =         0.0000 E_vdwl   =       734.7184 
E_coul   =     14736.1202 E_long   =    -19496.6599 Press    =      -682.2867 
Volume   =     11098.0795 
SHAKE stats (type/ave/delta) on step 485000
  2 1.08994 2.35542e-06
  4 0.944945 0
  5 0.999944 9.77679e-06
  6 109.47 0.000860504
---------------- Step   485000 ----- CPU =   1370.7578 (sec) ----------------
TotEng   =     -3371.9703 KinEng   =       649.1108 Temp     =       299.6742 
PotEng   =     -4021.0811 E_bond   =         0.6211 E_angle  =         2.9861 
E_dihed  =         0.0590 E_impro  =         0.0000 E_vdwl   =       773.2485 
E_coul   =     14698.4041 E_long   =    -19496.3998 Press    =       111.0962 
Volume   =     10994.4336 
SHAKE stats (type/ave/delta) on step 490000
  2 1.08984 4.64899e-06
  4 0.944865 0
  5 0.999858 1.68173e-05
  6 109.47 0.00130684
---------------- Step   490000 ----- CPU =   1385.3051 (sec) ----------------
TotEng   =     -3325.5634 KinEng   =       682.3096 Temp     =       315.0010 
PotEng   =     -4007.8730 E_bond   =         0.2999 E_angle  =         2.4555 
E_dihed  =         1.1453 E_impro  =         0.0000 E_vdwl   =       801.0046 
E_coul   =     14683.1244 E_long   =    -19495.9026 Press    =      1249.6175 
Volume   =     10857.8696 
SHAKE stats (type/ave/delta) on step 495000
  2 1.08994 1.50636e-06
  4 0.944948 0
  5 0.999945 8.60276e-06
  6 109.47 0.000557371
---------------- Step   495000 ----- CPU =   1400.3000 (sec) ----------------
TotEng   =     -3448.7366 KinEng   =       619.9503 Temp     =       286.2117 
PotEng   =     -4068.6869 E_bond   =         0.2842 E_angle  =         3.1951 
E_dihed  =         0.0402 E_impro  =         0.0000 E_vdwl   =       762.8103 
E_coul   =     14662.7740 E_long   =    -19497.7908 Press    =      -709.5773 
Volume   =     10995.8247 
SHAKE stats (type/ave/delta) on step 500000
  2 1.09002 2.60391e-06
  4 0.945013 0
  5 1.00002 7.92061e-06
  6 109.47 0.00106583
---------------- Step   500000 ----- CPU =   1414.9659 (sec) ----------------
TotEng   =     -3399.5448 KinEng   =       646.9460 Temp     =       298.6747 
PotEng   =     -4046.4908 E_bond   =         0.5366 E_angle  =         2.5708 
E_dihed  =         0.1562 E_impro  =         0.0000 E_vdwl   =       773.4161 
E_coul   =     14676.4269 E_long   =    -19499.5973 Press    =      -216.0835 
Volume   =     11019.8569 
SHAKE stats (type/ave/delta) on step 505000
  2 1.0901 4.63808e-07
  4 0.945086 0
  5 1.00009 4.27803e-06
  6 109.47 0.000401297
---------------- Step   505000 ----- CPU =   1427.6277 (sec) ----------------
TotEng   =     -3347.0645 KinEng   =       646.4856 Temp     =       298.4622 
PotEng   =     -3993.5501 E_bond   =         0.0822 E_angle  =         2.7203 
E_dihed  =         0.4301 E_impro  =         0.0000 E_vdwl   =       704.3295 
E_coul   =     14795.9989 E_long   =    -19497.1111 Press    =      -957.2537 
Volume   =     11058.1728 
SHAKE stats (type/ave/delta) on step 510000
  2 1.09001 1.02929e-06
  4 0.945009 0
  5 1.00001 5.71356e-06
  6 109.47 0.000650769
---------------- Step   510000 ----- CPU =   1440.6073 (sec) ----------------
TotEng   =     -3327.7787 KinEng   =       694.8911 Temp     =       320.8095 
PotEng   =     -4022.6697 E_bond   =         0.1995 E_angle  =         4.4329 
E_dihed  =         0.9796 E_impro  =         0.0000 E_vdwl   =       708.6219 
E_coul   =     14759.6659 E_long   =    -19496.5696 Press    =      -673.5510 
Volume   =     10777.1880 
SHAKE stats (type/ave/delta) on step 515000
  2 1.08993 7.62483e-07
  4 0.944937 0
  5 0.999935 5.19e-06
  6 109.47 0.000469485
---------------- Step   515000 ----- CPU =   1454.3209 (sec) ----------------
TotEng   =     -3376.9756 KinEng   =       644.0336 Temp     =       297.3302 
PotEng   =     -4021.0092 E_bond   =         0.0830 E_angle  =         2.5849 
E_dihed  =         0.8496 E_impro  =         0.0000 E_vdwl   =       740.4730 
E_coul   =     14733.3436 E_long   =    -19498.3433 Press    =      -220.6359 
Volume   =     10835.3723 
SHAKE stats (type/ave/delta) on step 520000
  2 1.09009 4.24195e-06
  4 0.945075 0
  5 1.00008 7.94782e-06
  6 109.47 0.00066559
---------------- Step   520000 ----- CPU =   1468.1779 (sec) ----------------
TotEng   =     -3334.8105 KinEng   =       638.7748 Temp     =       294.9024 
PotEng   =     -3973.5854 E_bond   =         0.1937 E_angle  =         2.9289 
E_dihed  =         0.1010 E_impro  =         0.0000 E_vdwl   =       687.6799 
E_coul   =     14831.9038 E_long   =    -19496.3927 Press    =     -1366.7938 
Volume   =     11206.2558 
SHAKE stats (type/ave/delta) on step 525000
  2 1.09012 3.96854e-07
  4 0.945101 0
  5 1.00011 6.08392e-06
  6 109.47 0.000393846
---------------- Step   525000 ----- CPU =   1481.8174 (sec) ----------------
TotEng   =     -3396.3256 KinEng   =       646.2582 Temp     =       298.3572 
PotEng   =     -4042.5838 E_bond   =         0.2806 E_angle  =         3.7854 
E_dihed  =         0.8266 E_impro  =         0.0000 E_vdwl   =       818.4438 
E_coul   =     14631.4336 E_long   =    -19497.3538 Press    =       911.1787 
Volume   =     10877.1645 
SHAKE stats (type/ave/delta) on step 530000
  2 1.08998 1.80784e-06
  4 0.94498 0
  5 0.99998 4.61625e-06
  6 109.47 0.000488038
---------------- Step   530000 ----- CPU =   1495.8770 (sec) ----------------
TotEng   =     -3386.1975 KinEng   =       630.2518 Temp     =       290.9676 
PotEng   =     -4016.4493 E_bond   =         1.4445 E_angle  =         3.7617 
E_dihed  =         0.0610 E_impro  =         0.0000 E_vdwl   =       721.6794 
E_coul   =     14752.5901 E_long   =    -19495.9859 Press    =      -652.6560 
Volume   =     10913.3532 
SHAKE stats (type/ave/delta) on step 535000
  2 1.08981 8.83167e-07
  4 0.944832 0
  5 0.999822 4.33118e-06
  6 109.47 0.000503605
---------------- Step   535000 ----- CPU =   1509.7587 (sec) ----------------
TotEng   =     -3350.2054 KinEng   =       643.1836 Temp     =       296.9378 
PotEng   =     -3993.3891 E_bond   =         0.1938 E_angle  =         3.8584 
E_dihed  =         0.1120 E_impro  =         0.0000 E_vdwl   =       736.6879 
E_coul   =     14762.2010 E_long   =    -19496.4421 Press    =      -251.4364 
Volume   =     10929.2974 
SHAKE stats (type/ave/delta) on step 540000
  2 1.08999 1.13741e-06
  4 0.944987 0
  5 0.999987 4.22433e-06
  6 109.47 0.000355526
---------------- Step   540000 ----- CPU =   1523.6964 (sec) ----------------
TotEng   =     -3361.0663 KinEng   =       671.9894 Temp     =       310.2365 
PotEng   =     -4033.0557 E_bond   =         0.1705 E_angle  =         2.0369 
E_dihed  =         0.5266 E_impro  =         0.0000 E_vdwl   =       753.4028 
E_coul   =     14708.7040 E_long   =    -19497.8964 Press    =      -533.7522 
Volume   =     11086.2874 
SHAKE stats (type/ave/delta) on step 545000
  2 1.09011 2.85838e-06
  4 0.945097 0
  5 1.0001 7.32421e-06
  6 109.47 0.000610179
---------------- Step   545000 ----- CPU =   1537.5838 (sec) ----------------
TotEng   =     -3379.7269 KinEng   =       666.9500 Temp     =       307.9099 
PotEng   =     -4046.6769 E_bond   =         0.6624 E_angle  =         3.8718 
E_dihed  =         0.4682 E_impro  =         0.0000 E_vdwl   =       745.0918 
E_coul   =     14699.7965 E_long   =    -19496.5676 Press    =      -666.0786 
Volume   =     10937.6720 
SHAKE stats (type/ave/delta) on step 550000
  2 1.08989 1.04259e-06
  4 0.944903 0
  5 0.999898 6.33937e-06
  6 109.47 0.000688
---------------- Step   550000 ----- CPU =   1551.6675 (sec) ----------------
TotEng   =     -3417.4206 KinEng   =       621.8143 Temp     =       287.0722 
PotEng   =     -4039.2349 E_bond   =         1.4164 E_angle  =         2.5833 
E_dihed  =         0.2326 E_impro  =         0.0000 E_vdwl   =       790.4352 
E_coul   =     14664.8112 E_long   =    -19498.7136 Press    =      1166.2630 
Volume   =     10569.6234 
SHAKE stats (type/ave/delta) on step 555000
  2 1.08987 4.3517e-06
  4 0.94489 0
  5 0.999884 1.02949e-05
  6 109.47 0.000920325
---------------- Step   555000 ----- CPU =   1565.5365 (sec) ----------------
TotEng   =     -3348.6899 KinEng   =       654.6487 Temp     =       302.2308 
PotEng   =     -4003.3385 E_bond   =         0.7245 E_angle  =         2.1820 
E_dihed  =         0.1986 E_impro  =         0.0000 E_vdwl   =       748.0794 
E_coul   =     14741.5189 E_long   =    -19496.0420 Press    =        78.7268 
Volume   =     10956.0396 
SHAKE stats (type/ave/delta) on step 560000
  2 1.09012 1.1127e-06
  4 0.9451 0
  5 1.00011 4.73763e-06
  6 109.47 0.000516043
---------------- Step   560000 ----- CPU =   1579.6207 (sec) ----------------
TotEng   =     -3312.6895 KinEng   =       652.9399 Temp     =       301.4419 
PotEng   =     -3965.6294 E_bond   =         0.6927 E_angle  =         2.2421 
E_dihed  =         0.3071 E_impro  =         0.0000 E_vdwl   =       799.3072 
E_coul   =     14730.2117 E_long   =    -19498.3901 Press    =       816.5668 
Volume   =     11039.3502 
SHAKE stats (type/ave/delta) on step 565000
  2 1.08999 2.01993e-07
  4 0.944993 0
  5 0.999993 4.43583e-06
  6 109.47 0.000419504
---------------- Step   565000 ----- CPU =   1593.4713 (sec) ----------------
TotEng   =     -3393.3498 KinEng   =       639.9752 Temp     =       295.4565 
PotEng   =     -4033.3250 E_bond   =         0.8538 E_angle  =         3.3053 
E_dihed  =         1.3854 E_impro  =         0.0000 E_vdwl   =       739.6983 
E_coul   =     14714.1814 E_long   =    -19492.7492 Press    =      -906.0673 
Volume   =     10934.4191 
SHAKE stats (type/ave/delta) on step 570000
  2 1.08987 1.6804e-07
  4 0.944889 0
  5 0.999883 4.49385e-06
  6 109.47 0.000366811
---------------- Step   570000 ----- CPU =   1607.3834 (sec) ----------------
TotEng   =     -3414.0143 KinEng   =       649.5952 Temp     =       299.8978 
PotEng   =     -4063.6095 E_bond   =         0.9378 E_angle  =         2.2603 
E_dihed  =         0.0812 E_impro  =         0.0000 E_vdwl   =       776.1385 
E_coul   =     14650.5886 E_long   =    -19493.6159 Press    =      -320.5336 
Volume   =     10974.1987 
SHAKE stats (type/ave/delta) on step 575000
  2 1.09001 1.29293e-07
  4 0.945008 0
  5 1.00001 4.2688e-06
  6 109.47 0.00060159
---------------- Step   575000 ----- CPU =   1621.4731 (sec) ----------------
TotEng   =     -3378.4036 KinEng   =       649.1842 Temp     =       299.7081 
PotEng   =     -4027.5878 E_bond   =         0.1357 E_angle  =         3.6807 
E_dihed  =         0.3829 E_impro  =         0.0000 E_vdwl   =       745.2895 
E_coul   =     14719.0789 E_long   =    -19496.1555 Press    =      -684.6333 
Volume   =     11102.2971 
SHAKE stats (type/ave/delta) on step 580000
  2 1.0899 5.14456e-06
  4 0.944916 0
  5 0.999912 1.4575e-05
  6 109.47 0.00131871
---------------- Step   580000 ----- CPU =   1635.2279 (sec) ----------------
TotEng   =     -3389.7577 KinEng   =       649.6253 Temp     =       299.9117 
PotEng   =     -4039.3830 E_bond   =         0.0721 E_angle  =         2.4639 
E_dihed  =         0.5088 E_impro  =         0.0000 E_vdwl   =       824.7585 
E_coul   =     14627.3305 E_long   =    -19494.5169 Press    =      1271.0619 
Volume   =     10848.9449 
SHAKE stats (type/ave/delta) on step 585000
  2 1.09002 4.50853e-07
  4 0.945014 0
  5 1.00002 4.46933e-06
  6 109.47 0.00037782
---------------- Step   585000 ----- CPU =   1649.7487 (sec) ----------------
TotEng   =     -3341.7779 KinEng   =       625.9052 Temp     =       288.9608 
PotEng   =     -3967.6831 E_bond   =         0.3916 E_angle  =         3.6583 
E_dihed  =         1.3442 E_impro  =         0.0000 E_vdwl   =       760.6058 
E_coul   =     14762.6716 E_long   =    -19496.3545 Press    =       256.5901 
Volume   =     10931.1729 
SHAKE stats (type/ave/delta) on step 590000
  2 1.08998 1.74161e-06
  4 0.944979 1.77636e-15
  5 0.999979 7.6383e-06
  6 109.47 0.000589098
---------------- Step   590000 ----- CPU =   1663.9291 (sec) ----------------
TotEng   =     -3321.7969 KinEng   =       702.7092 Temp     =       324.4189 
PotEng   =     -4024.5061 E_bond   =         0.4927 E_angle  =         4.6682 
E_dihed  =         0.4483 E_impro  =         0.0000 E_vdwl   =       763.8409 
E_coul   =     14702.1424 E_long   =    -19496.0987 Press    =        86.0722 
Volume   =     10961.3652 
SHAKE stats (type/ave/delta) on step 595000
  2 1.08991 1.18861e-06
  4 0.94492 0
  5 0.999916 5.67879e-06
  6 109.47 0.000457627
---------------- Step   595000 ----- CPU =   1678.3142 (sec) ----------------
TotEng   =     -3395.1034 KinEng   =       630.2479 Temp     =       290.9657 
PotEng   =     -4025.3513 E_bond   =         0.9714 E_angle  =         4.0278 
E_dihed  =         0.5659 E_impro  =         0.0000 E_vdwl   =       777.5810 
[...]
  6 109.47 0.000527928
---------------- Step  2335000 ----- CPU =   6614.7505 (sec) ----------------
TotEng   =     -3383.9237 KinEng   =       658.0779 Temp     =       303.8140 
PotEng   =     -4042.0016 E_bond   =         0.5391 E_angle  =         2.6281 
E_dihed  =         0.1694 E_impro  =         0.0000 E_vdwl   =       824.8431 
E_coul   =     14625.6009 E_long   =    -19495.7822 Press    =      1224.4038 
Volume   =     10842.9957 
SHAKE stats (type/ave/delta) on step 2340000
  2 1.08999 5.36726e-07
  4 0.944993 0
  5 0.999993 4.48793e-06
  6 109.47 0.000465085
---------------- Step  2340000 ----- CPU =   6629.2423 (sec) ----------------
TotEng   =     -3363.4163 KinEng   =       659.7489 Temp     =       304.5855 
PotEng   =     -4023.1652 E_bond   =         0.5680 E_angle  =         4.8664 
E_dihed  =         1.9931 E_impro  =         0.0000 E_vdwl   =       759.1820 
E_coul   =     14706.8287 E_long   =    -19496.6033 Press    =      -220.5504 
Volume   =     11015.3625 
SHAKE stats (type/ave/delta) on step 2345000
  2 1.08993 1.99682e-06
  4 0.944937 0
  5 0.999934 6.89188e-06
  6 109.47 0.000785139
---------------- Step  2345000 ----- CPU =   6643.3970 (sec) ----------------
TotEng   =     -3380.8379 KinEng   =       646.2708 Temp     =       298.3630 
PotEng   =     -4027.1088 E_bond   =         0.5224 E_angle  =         7.1747 
E_dihed  =         0.2235 E_impro  =         0.0000 E_vdwl   =       762.0918 
E_coul   =     14700.0014 E_long   =    -19497.1227 Press    =       -32.0812 
Volume   =     10841.0440 
SHAKE stats (type/ave/delta) on step 2350000
  2 1.09003 1.95447e-06
  4 0.945027 0
  5 1.00003 8.52848e-06
  6 109.47 0.000885936
---------------- Step  2350000 ----- CPU =   6657.6463 (sec) ----------------
TotEng   =     -3380.8139 KinEng   =       645.8912 Temp     =       298.1878 
PotEng   =     -4026.7050 E_bond   =         0.4812 E_angle  =         3.6076 
E_dihed  =         0.6459 E_impro  =         0.0000 E_vdwl   =       764.5177 
E_coul   =     14701.4610 E_long   =    -19497.4185 Press    =      -224.8906 
Volume   =     11033.5123 
SHAKE stats (type/ave/delta) on step 2355000
  2 1.09011 9.87713e-07
  4 0.945097 0
  5 1.0001 5.9774e-06
  6 109.47 0.000461753
---------------- Step  2355000 ----- CPU =   6671.6237 (sec) ----------------
TotEng   =     -3337.3931 KinEng   =       675.4083 Temp     =       311.8149 
PotEng   =     -4012.8014 E_bond   =         0.5451 E_angle  =         3.8117 
E_dihed  =         0.5751 E_impro  =         0.0000 E_vdwl   =       735.5529 
E_coul   =     14743.4050 E_long   =    -19496.6912 Press    =      -218.6545 
Volume   =     10832.9891 
SHAKE stats (type/ave/delta) on step 2360000
  2 1.08999 1.61679e-06
  4 0.944996 0
  5 0.999996 5.00708e-06
  6 109.47 0.000599403
---------------- Step  2360000 ----- CPU =   6685.5257 (sec) ----------------
TotEng   =     -3330.6630 KinEng   =       669.7864 Temp     =       309.2195 
PotEng   =     -4000.4495 E_bond   =         0.1598 E_angle  =         3.8054 
E_dihed  =         0.6809 E_impro  =         0.0000 E_vdwl   =       781.8713 
E_coul   =     14709.8743 E_long   =    -19496.8413 Press    =       345.7624 
Volume   =     11160.6179 
SHAKE stats (type/ave/delta) on step 2365000
  2 1.08999 1.05244e-06
  4 0.944993 0
  5 0.999989 8.80857e-06
  6 109.47 0.000792879
---------------- Step  2365000 ----- CPU =   6699.5262 (sec) ----------------
TotEng   =     -3363.6915 KinEng   =       635.0031 Temp     =       293.1611 
PotEng   =     -3998.6946 E_bond   =         0.3861 E_angle  =         4.6796 
E_dihed  =         1.1157 E_impro  =         0.0000 E_vdwl   =       786.2100 
E_coul   =     14705.6411 E_long   =    -19496.7271 Press    =       723.0208 
Volume   =     10891.5160 
SHAKE stats (type/ave/delta) on step 2370000
  2 1.09002 8.49397e-07
  4 0.945016 0
  5 1.00002 6.29067e-06
  6 109.47 0.000466953
---------------- Step  2370000 ----- CPU =   6713.5443 (sec) ----------------
TotEng   =     -3382.6767 KinEng   =       669.3828 Temp     =       309.0331 
PotEng   =     -4052.0595 E_bond   =         0.9197 E_angle  =         4.2305 
E_dihed  =         1.1466 E_impro  =         0.0000 E_vdwl   =       786.8219 
E_coul   =     14649.9863 E_long   =    -19495.1644 Press    =       512.5166 
Volume   =     10769.4039 
SHAKE stats (type/ave/delta) on step 2375000
  2 1.09005 3.21012e-06
  4 0.945044 0
  5 1.00005 7.41431e-06
  6 109.47 0.000531441
---------------- Step  2375000 ----- CPU =   6727.5839 (sec) ----------------
TotEng   =     -3376.2581 KinEng   =       640.7620 Temp     =       295.8198 
PotEng   =     -4017.0201 E_bond   =         0.1376 E_angle  =         1.6847 
E_dihed  =         1.1804 E_impro  =         0.0000 E_vdwl   =       754.6327 
E_coul   =     14723.9156 E_long   =    -19498.5711 Press    =        -1.4812 
Volume   =     10900.0323 
SHAKE stats (type/ave/delta) on step 2380000
  2 1.09005 3.05601e-07
  4 0.94504 0
  5 1.00004 7.73819e-06
  6 109.47 0.000507754
---------------- Step  2380000 ----- CPU =   6740.6190 (sec) ----------------
TotEng   =     -3426.4632 KinEng   =       633.2063 Temp     =       292.3315 
PotEng   =     -4059.6695 E_bond   =         0.6188 E_angle  =         5.1893 
E_dihed  =         0.3592 E_impro  =         0.0000 E_vdwl   =       770.9304 
E_coul   =     14661.0491 E_long   =    -19497.8164 Press    =      -284.7447 
Volume   =     11045.4641 
SHAKE stats (type/ave/delta) on step 2385000
  2 1.09015 1.43845e-06
  4 0.945129 0
  5 1.00014 9.66367e-06
  6 109.47 0.000542679
---------------- Step  2385000 ----- CPU =   6753.8654 (sec) ----------------
TotEng   =     -3379.3245 KinEng   =       644.6730 Temp     =       297.6254 
PotEng   =     -4023.9975 E_bond   =         0.5009 E_angle  =         5.3720 
E_dihed  =         0.9453 E_impro  =         0.0000 E_vdwl   =       740.6409 
E_coul   =     14724.4527 E_long   =    -19495.9094 Press    =      -290.3699 
Volume   =     10955.1222 
SHAKE stats (type/ave/delta) on step 2390000
  2 1.09007 1.5986e-07
  4 0.94506 0
  5 1.00006 4.10738e-06
  6 109.47 0.000367721
---------------- Step  2390000 ----- CPU =   6766.7285 (sec) ----------------
TotEng   =     -3274.7336 KinEng   =       660.0227 Temp     =       304.7118 
PotEng   =     -3934.7563 E_bond   =         0.6839 E_angle  =         6.6243 
E_dihed  =         0.5644 E_impro  =         0.0000 E_vdwl   =       698.9074 
E_coul   =     14855.2029 E_long   =    -19496.7392 Press    =      -622.8131 
Volume   =     11099.7707 
SHAKE stats (type/ave/delta) on step 2395000
  2 1.09001 4.20895e-06
  4 0.945006 0
  5 1.00001 4.84779e-06
  6 109.47 0.000535012
---------------- Step  2395000 ----- CPU =   6780.3190 (sec) ----------------
TotEng   =     -3415.2152 KinEng   =       628.6865 Temp     =       290.2449 
PotEng   =     -4043.9017 E_bond   =         0.2597 E_angle  =         3.6743 
E_dihed  =         1.3469 E_impro  =         0.0000 E_vdwl   =       728.8864 
E_coul   =     14718.0565 E_long   =    -19496.1255 Press    =      -627.7884 
Volume   =     10738.5762 
SHAKE stats (type/ave/delta) on step 2400000
  2 1.08994 2.02632e-06
  4 0.944949 1.77636e-15
  5 0.999946 7.82794e-06
  6 109.47 0.000773118
---------------- Step  2400000 ----- CPU =   6794.1034 (sec) ----------------
TotEng   =     -3368.8242 KinEng   =       624.3701 Temp     =       288.2521 
PotEng   =     -3993.1943 E_bond   =         0.6822 E_angle  =         2.8296 
E_dihed  =         0.4984 E_impro  =         0.0000 E_vdwl   =       724.0396 
E_coul   =     14774.7031 E_long   =    -19495.9471 Press    =      -675.8336 
Volume   =     11074.1506 
SHAKE stats (type/ave/delta) on step 2405000
  2 1.08995 1.1125e-06
  4 0.944953 0
  5 0.999951 4.84319e-06
  6 109.47 0.000461152
---------------- Step  2405000 ----- CPU =   6808.8824 (sec) ----------------
TotEng   =     -3343.5086 KinEng   =       666.4743 Temp     =       307.6903 
PotEng   =     -4009.9829 E_bond   =         0.3402 E_angle  =         2.2510 
E_dihed  =         0.5730 E_impro  =         0.0000 E_vdwl   =       845.0791 
E_coul   =     14639.0838 E_long   =    -19497.3099 Press    =      1789.6781 
Volume   =     10991.0572 
SHAKE stats (type/ave/delta) on step 2410000
  2 1.09005 9.72746e-07
  4 0.945043 0
  5 1.00005 7.13368e-06
  6 109.47 0.000593636
---------------- Step  2410000 ----- CPU =   6823.9500 (sec) ----------------
TotEng   =     -3432.5307 KinEng   =       612.3791 Temp     =       282.7163 
PotEng   =     -4044.9097 E_bond   =         0.0764 E_angle  =         3.2465 
E_dihed  =         1.0118 E_impro  =         0.0000 E_vdwl   =       788.4905 
E_coul   =     14659.3252 E_long   =    -19497.0601 Press    =       -93.6869 
Volume   =     11056.3513 
SHAKE stats (type/ave/delta) on step 2415000
  2 1.0899 8.20771e-07
  4 0.944912 0
  5 0.999908 5.22583e-06
  6 109.47 0.000459579
---------------- Step  2415000 ----- CPU =   6838.6889 (sec) ----------------
TotEng   =     -3330.3055 KinEng   =       683.6686 Temp     =       315.6284 
PotEng   =     -4013.9741 E_bond   =         0.8090 E_angle  =         2.0487 
E_dihed  =         0.1127 E_impro  =         0.0000 E_vdwl   =       788.6789 
E_coul   =     14690.7308 E_long   =    -19496.3543 Press    =       579.6080 
Volume   =     10882.4638 
SHAKE stats (type/ave/delta) on step 2420000
  2 1.09 7.48196e-06
  4 0.944993 0
  5 1 1.49635e-05
  6 109.47 0.00132057
---------------- Step  2420000 ----- CPU =   6853.4476 (sec) ----------------
TotEng   =     -3397.2235 KinEng   =       629.0717 Temp     =       290.4227 
PotEng   =     -4026.2952 E_bond   =         0.2173 E_angle  =         4.6375 
E_dihed  =         0.8908 E_impro  =         0.0000 E_vdwl   =       821.9477 
E_coul   =     14640.9697 E_long   =    -19494.9582 Press    =       974.3956 
Volume   =     10946.5748 
SHAKE stats (type/ave/delta) on step 2425000
  2 1.09008 6.75926e-07
  4 0.945068 0
  5 1.00007 9.04337e-06
  6 109.47 0.00061624
---------------- Step  2425000 ----- CPU =   6868.3276 (sec) ----------------
TotEng   =     -3389.6527 KinEng   =       654.4285 Temp     =       302.1292 
PotEng   =     -4044.0812 E_bond   =         0.1413 E_angle  =         4.9570 
E_dihed  =         0.3362 E_impro  =         0.0000 E_vdwl   =       785.5536 
E_coul   =     14661.1847 E_long   =    -19496.2541 Press    =       356.0594 
Volume   =     10888.1913 
SHAKE stats (type/ave/delta) on step 2430000
  2 1.09 1.55653e-06
  4 0.945003 0
  5 1 6.05583e-06
  6 109.47 0.000512647
---------------- Step  2430000 ----- CPU =   6883.0480 (sec) ----------------
TotEng   =     -3323.4414 KinEng   =       686.6824 Temp     =       317.0198 
PotEng   =     -4010.1238 E_bond   =         0.2881 E_angle  =         3.2080 
E_dihed  =         0.1141 E_impro  =         0.0000 E_vdwl   =       786.5376 
E_coul   =     14696.2291 E_long   =    -19496.5008 Press    =       884.2720 
Volume   =     10856.5541 
SHAKE stats (type/ave/delta) on step 2435000
  2 1.09007 8.72443e-07
  4 0.945059 0
  5 1.00006 7.01555e-06
  6 109.47 0.000599065
---------------- Step  2435000 ----- CPU =   6898.1123 (sec) ----------------
TotEng   =     -3382.4700 KinEng   =       651.0322 Temp     =       300.5612 
PotEng   =     -4033.5023 E_bond   =         0.0527 E_angle  =         3.7053 
E_dihed  =         0.0754 E_impro  =         0.0000 E_vdwl   =       768.1282 
E_coul   =     14690.8568 E_long   =    -19496.3207 Press    =      -324.1166 
Volume   =     11070.2438 
SHAKE stats (type/ave/delta) on step 2440000
  2 1.08997 1.36666e-07
  4 0.944973 0
  5 0.999972 3.91761e-06
  6 109.47 0.000369653
---------------- Step  2440000 ----- CPU =   6912.7542 (sec) ----------------
TotEng   =     -3414.6151 KinEng   =       635.5126 Temp     =       293.3963 
PotEng   =     -4050.1278 E_bond   =         0.0030 E_angle  =         3.0703 
E_dihed  =         0.3681 E_impro  =         0.0000 E_vdwl   =       744.3925 
E_coul   =     14699.3368 E_long   =    -19497.2984 Press    =      -770.4694 
Volume   =     11063.5956 
SHAKE stats (type/ave/delta) on step 2445000
  2 1.09005 4.11556e-07
  4 0.945041 0
  5 1.00004 4.68144e-06
  6 109.47 0.000375064
---------------- Step  2445000 ----- CPU =   6926.8511 (sec) ----------------
TotEng   =     -3381.3599 KinEng   =       654.5745 Temp     =       302.1966 
PotEng   =     -4035.9344 E_bond   =         1.0445 E_angle  =         2.1731 
E_dihed  =         0.5929 E_impro  =         0.0000 E_vdwl   =       749.5571 
E_coul   =     14703.5925 E_long   =    -19492.8945 Press    =      -707.0765 
Volume   =     11043.4444 
SHAKE stats (type/ave/delta) on step 2450000
  2 1.08995 1.31742e-06
  4 0.944958 0
  5 0.999957 5.51006e-06
  6 109.47 0.000497218
---------------- Step  2450000 ----- CPU =   6940.9270 (sec) ----------------
TotEng   =     -3359.2640 KinEng   =       683.2347 Temp     =       315.4281 
PotEng   =     -4042.4987 E_bond   =         0.5142 E_angle  =         2.8811 
E_dihed  =         1.8508 E_impro  =         0.0000 E_vdwl   =       676.7642 
E_coul   =     14772.1938 E_long   =    -19496.7029 Press    =     -1923.7312 
Volume   =     11020.7308 
SHAKE stats (type/ave/delta) on step 2455000
  2 1.08996 7.11688e-07
  4 0.944968 0
  5 0.999967 4.73578e-06
  6 109.47 0.000396669
---------------- Step  2455000 ----- CPU =   6954.9718 (sec) ----------------
TotEng   =     -3463.9811 KinEng   =       638.7774 Temp     =       294.9036 
PotEng   =     -4102.7585 E_bond   =         0.0574 E_angle  =         5.6278 
E_dihed  =         0.3746 E_impro  =         0.0000 E_vdwl   =       762.8387 
E_coul   =     14623.9502 E_long   =    -19495.6072 Press    =      -660.1366 
Volume   =     10921.2638 
SHAKE stats (type/ave/delta) on step 2460000
  2 1.0899 1.44182e-06
  4 0.944913 0
  5 0.999907 5.63325e-06
  6 109.47 0.000617575
---------------- Step  2460000 ----- CPU =   6969.3447 (sec) ----------------
TotEng   =     -3344.7373 KinEng   =       649.1972 Temp     =       299.7140 
PotEng   =     -3993.9345 E_bond   =         2.5558 E_angle  =         3.8832 
E_dihed  =         0.3086 E_impro  =         0.0000 E_vdwl   =       699.6876 
E_coul   =     14797.4681 E_long   =    -19497.8378 Press    =     -1248.8448 
Volume   =     10929.5562 
SHAKE stats (type/ave/delta) on step 2465000
  2 1.08999 6.63159e-07
  4 0.944994 0
  5 0.999994 3.58937e-06
  6 109.47 0.000370218
---------------- Step  2465000 ----- CPU =   6983.7543 (sec) ----------------
TotEng   =     -3366.7747 KinEng   =       655.3794 Temp     =       302.5682 
PotEng   =     -4022.1541 E_bond   =         1.5371 E_angle  =         6.1788 
E_dihed  =         3.0127 E_impro  =         0.0000 E_vdwl   =       780.7330 
E_coul   =     14683.3487 E_long   =    -19496.9645 Press    =       352.5324 
Volume   =     10914.5137 
SHAKE stats (type/ave/delta) on step 2470000
  2 1.09011 9.52356e-07
  4 0.945092 0
  5 1.0001 4.76098e-06
  6 109.47 0.000524195
---------------- Step  2470000 ----- CPU =   6999.1394 (sec) ----------------
TotEng   =     -3377.2468 KinEng   =       640.9362 Temp     =       295.9002 
PotEng   =     -4018.1830 E_bond   =         0.1994 E_angle  =         4.5884 
E_dihed  =         0.2156 E_impro  =         0.0000 E_vdwl   =       761.1121 
E_coul   =     14713.2167 E_long   =    -19497.5152 Press    =      -125.2252 
Volume   =     10892.6935 
SHAKE stats (type/ave/delta) on step 2475000
  2 1.09003 5.13712e-06
  4 0.945024 0
  5 1.00003 6.44699e-06
  6 109.47 0.000725934
---------------- Step  2475000 ----- CPU =   7014.5454 (sec) ----------------
TotEng   =     -3348.1285 KinEng   =       648.5656 Temp     =       299.4224 
PotEng   =     -3996.6940 E_bond   =         0.2273 E_angle  =         3.3282 
E_dihed  =         0.6001 E_impro  =         0.0000 E_vdwl   =       748.8468 
E_coul   =     14748.0208 E_long   =    -19497.7172 Press    =      -127.8514 
Volume   =     11066.6329 
SHAKE stats (type/ave/delta) on step 2480000
  2 1.09004 6.06398e-07
  4 0.945031 0
  5 1.00003 5.3824e-06
  6 109.47 0.000503047
---------------- Step  2480000 ----- CPU =   7029.9277 (sec) ----------------
TotEng   =     -3379.3454 KinEng   =       647.6334 Temp     =       298.9921 
PotEng   =     -4026.9788 E_bond   =         0.5532 E_angle  =         1.6988 
E_dihed  =         0.7404 E_impro  =         0.0000 E_vdwl   =       798.6720 
E_coul   =     14670.5504 E_long   =    -19499.1936 Press    =       640.5392 
Volume   =     10938.8284 
SHAKE stats (type/ave/delta) on step 2485000
  2 1.08992 9.13328e-07
  4 0.944935 0
  5 0.999931 9.04366e-06
  6 109.47 0.000607109
---------------- Step  2485000 ----- CPU =   7045.3500 (sec) ----------------
TotEng   =     -3410.9624 KinEng   =       657.9827 Temp     =       303.7701 
PotEng   =     -4068.9451 E_bond   =         0.8996 E_angle  =         2.6521 
E_dihed  =         1.5545 E_impro  =         0.0000 E_vdwl   =       827.4678 
E_coul   =     14596.3752 E_long   =    -19497.8943 Press    =       884.1107 
Volume   =     10821.2567 
SHAKE stats (type/ave/delta) on step 2490000
  2 1.08997 1.16024e-06
  4 0.944973 0
  5 0.999972 4.4938e-06
  6 109.47 0.00046995
---------------- Step  2490000 ----- CPU =   7059.5598 (sec) ----------------
TotEng   =     -3479.6414 KinEng   =       619.5479 Temp     =       286.0259 
PotEng   =     -4099.1893 E_bond   =         0.2767 E_angle  =         3.4688 
E_dihed  =         0.2443 E_impro  =         0.0000 E_vdwl   =       739.0782 
E_coul   =     14656.6415 E_long   =    -19498.8988 Press    =     -1454.5250 
Volume   =     11036.3611 
SHAKE stats (type/ave/delta) on step 2495000
  2 1.09006 1.97926e-06
  4 0.945053 0
  5 1.00006 3.912e-06
  6 109.47 0.000380775
---------------- Step  2495000 ----- CPU =   7073.8913 (sec) ----------------
TotEng   =     -3373.7277 KinEng   =       665.4481 Temp     =       307.2166 
PotEng   =     -4039.1757 E_bond   =         0.7635 E_angle  =         4.1273 
E_dihed  =         0.0750 E_impro  =         0.0000 E_vdwl   =       781.9231 
E_coul   =     14672.5740 E_long   =    -19498.6386 Press    =       369.3268 
Volume   =     10945.3338 
SHAKE stats (type/ave/delta) on step 2500000
  2 1.08997 9.03035e-07
  4 0.944971 0
  5 0.99997 5.86248e-06
  6 109.47 0.000485921
---------------- Step  2500000 ----- CPU =   7089.3097 (sec) ----------------
TotEng   =     -3366.3199 KinEng   =       625.1707 Temp     =       288.6218 
PotEng   =     -3991.4905 E_bond   =         0.5937 E_angle  =         5.2879 
E_dihed  =         0.2219 E_impro  =         0.0000 E_vdwl   =       748.4521 
E_coul   =     14751.7874 E_long   =    -19497.8336 Press    =      -470.5220 
Volume   =     11279.6311 
Loop time of 7089.31 on 8 procs for 2500000 steps with 1090 atoms

Pair  time (%) = 3648.24 (51.4612)
Bond  time (%) = 9.32718 (0.131567)
Kspce time (%) = 1315.51 (18.5563)
Neigh time (%) = 486.732 (6.86572)
Comm  time (%) = 723.142 (10.2005)
Outpt time (%) = 0.2263 (0.00319213)
Other time (%) = 906.123 (12.7815)

FFT time (% of Kspce) = 177.757 (13.5123)
FFT Gflps 3d (1d only) = 3.62342 53.0347

Nlocal:    136.25 ave 149 max 120 min
Histogram: 1 0 0 0 1 2 2 1 0 1
Nghost:    4103.5 ave 4156 max 4038 min
Histogram: 1 0 1 2 0 0 1 0 1 2
Neighs:    47539 ave 53590 max 41514 min
Histogram: 1 1 1 0 2 0 0 0 1 2

Total # of neighbors = 380312
Ave neighs/atom = 348.91
Ave special neighs/atom = 2.05872
Neighbor list builds = 206272
Dangerous builds = 33147

write_restart restart.*.lmp
PPPM initialization ...
  G vector (1/distance) = 0.266717
  grid = 12 12 12
  stencil order = 5
  estimated absolute RMS force accuracy = 0.0267736
  estimated relative force accuracy = 8.06278e-05
  using double precision FFTs
  3d grid and FFT values/proc = 2197 288
write_data data.*.lmp
PPPM initialization ...
  G vector (1/distance) = 0.266717
  grid = 12 12 12
  stencil order = 5
  estimated absolute RMS force accuracy = 0.0267736
  estimated relative force accuracy = 8.06278e-05
  using double precision FFTs
  3d grid and FFT values/proc = 2197 288
