LAMMPS data file via write_data, version 11 Nov 2013, timestep = 500000

1090 atoms
8 atom types
729 bonds
5 bond types
377 angles
6 angle types
16 dihedrals
4 dihedral types

-1.1071761599717565e+01 1.1071761599717565e+01 xlo xhi
-1.1071761599717565e+01 1.1071761599717565e+01 ylo yhi
-1.1071761599717565e+01 1.1071761599717565e+01 zlo zhi

Masses

1 12.011
2 12.011
3 1.008
4 1.008
5 15.999
6 1.008
7 1.008
8 15.999

Bond Coeffs

1 268 1.529
2 340 1.09
3 320 1.41
4 553 0.945
5 517.6 1

Angle Coeffs

1 37.5 110.7
2 50 0
3 33 107.8
4 35 109.5
5 55 108.5
6 37.95 109.47

Dihedral Coeffs

1 0 0 0.318 0
2 0 0 0 0
3 0 0 0 0
4 0 0 0.45 0

Atoms

887 294 7 4.2399999999999999e-01 -7.1165756728927407e+00 -5.2138178108495126e-01 -6.2576347755036812e+00 1 0 -1
536 177 7 4.2399999999999999e-01 -4.5930360142072395e+00 -2.4229665208803528e+00 -2.7526424125336302e+00 0 -1 0
650 215 7 4.2399999999999999e-01 -3.6088214524848805e+00 -9.3106477651643260e-02 -1.0734413301696494e+01 1 -2 0
61 18 7 4.2399999999999999e-01 -5.7932740300864873e+00 -8.7863269457163060e+00 -3.1324396802134240e+00 0 -2 0
1063 352 7 4.2399999999999999e-01 -9.7234744372758204e+00 -6.1642826374732724e+00 -1.0887411474083809e+01 0 0 1
842 279 7 4.2399999999999999e-01 -5.2981326615238631e+00 -3.5112478998728989e+00 -8.6039816408778869e-01 2 1 -1
1017 337 8 -8.4799999999999998e-01 -6.1462632373739190e-01 -1.0420188439661930e+01 -9.3974387922849587e+00 0 0 -1
381 125 8 -8.4799999999999998e-01 -6.4433103025917218e+00 -1.1866293937946288e+00 -8.0915607996313277e+00 1 0 0
856 283 7 4.2399999999999999e-01 -5.5393170310472337e+00 -1.1013462841627177e+01 -7.0751674801280622e+00 1 0 0
962 319 7 4.2399999999999999e-01 -7.2656284872368584e+00 -5.6226827215658854e+00 -7.3962580968059850e+00 1 0 0
250 81 7 4.2399999999999999e-01 -1.0287045547022563e+01 -2.1467036674573432e+00 -6.0390757174708778e+00 1 1 1
1061 352 7 4.2399999999999999e-01 -1.0852806855497308e+01 -5.7471617598016280e+00 -9.7840874115702139e+00 0 0 1
23 6 7 4.2399999999999999e-01 -4.6340069185610009e+00 -3.0837828276869024e+00 -7.2724149508997709e+00 1 0 1
964 319 7 4.2399999999999999e-01 -8.4590710690193820e+00 -5.7866700965111262e+00 -8.4987578152053693e+00 1 0 0
249 81 8 -8.4799999999999998e-01 -1.0047202987549841e+01 -3.0068561006942893e+00 -6.4892346113702173e+00 1 1 1
122 39 7 4.2399999999999999e-01 -6.9054560239933780e+00 -5.8535838923024821e+00 -5.6739423276858831e+00 -1 2 1
75 23 8 -8.4799999999999998e-01 -5.5189346468829719e+00 -6.4678390428519386e+00 -1.3944496380955140e+00 2 -1 2
548 181 7 4.2399999999999999e-01 -1.0871390094378484e+00 -5.8504112931261298e+00 -6.8673718371178216e+00 -2 -1 -1
1062 352 8 -8.4799999999999998e-01 -1.0298593813156089e+01 -6.4991534318179331e+00 -1.0141000662470082e+01 0 0 1
123 39 8 -8.4799999999999998e-01 -5.9789130006426507e+00 -5.9826847374678547e+00 -6.0273273040804991e+00 -1 2 1
855 283 8 -8.4799999999999998e-01 -5.7934730418208744e+00 -1.0459735702424453e+01 -6.2821853136650905e+00 1 0 0
24 6 8 -8.4799999999999998e-01 -5.2143277982807037e+00 -3.2323418573707086e+00 -6.4716720397683272e+00 1 0 1
489 161 8 -8.4799999999999998e-01 -8.4484734940373158e+00 -3.1892788810083941e+00 -1.2966043694555189e+00 1 1 1
124 39 7 4.2399999999999999e-01 -5.3377922609937576e+00 -6.0547705244167052e+00 -5.2632606901838610e+00 -1 2 1
862 285 7 4.2399999999999999e-01 -2.2227544500705800e+00 -1.0821659460516265e+01 -8.4017197754049828e+00 -2 0 1
1009 334 7 4.2399999999999999e-01 -1.0681380762039083e-01 -4.2445617739896466e+00 -7.5175931014728219e+00 0 0 1
398 131 7 4.2399999999999999e-01 -3.0012979712155019e+00 -7.8178515261904824e+00 -2.0116779287013546e+00 -2 2 1
481 158 7 4.2399999999999999e-01 -5.1878851529252392e+00 -6.5231949096250945e+00 -3.3197195769252632e+00 1 1 -1
1018 337 7 4.2399999999999999e-01 -2.5261101599308056e-01 -9.8449445305726044e+00 -8.6639046852076458e+00 0 0 -1
327 107 8 -8.4799999999999998e-01 -1.6910622331913476e+00 -2.7069231556986484e+00 -1.0208236011616428e+01 -1 -1 1
360 118 8 -8.4799999999999998e-01 -8.0593625640582509e+00 -8.7497369032770234e+00 -3.2031852209976615e+00 -2 1 -1
549 181 8 -8.4799999999999998e-01 -1.9264037096979258e-01 -5.6232943025876567e+00 -6.4822485803623611e+00 -2 -1 -1
436 143 7 4.2399999999999999e-01 -1.3753311549233516e+00 -4.8890122565143344e+00 -2.7573863758165356e+00 -1 0 1
1025 340 7 4.2399999999999999e-01 -2.9731627423981575e+00 -1.7748792258510786e+00 -3.4830045325873451e+00 0 2 1
83 26 7 4.2399999999999999e-01 -7.6994015493714434e+00 -1.7468806225734053e+00 -5.9338008781689133e-01 0 0 1
691 228 7 4.2399999999999999e-01 -5.0174237203077885e+00 -2.5661902192074404e+00 -4.9406009679898428e+00 1 -1 0
64 19 7 4.2399999999999999e-01 -1.3213084658811649e+00 -7.9036062160718750e+00 -7.7649328756804206e+00 0 2 2
435 143 8 -8.4799999999999998e-01 -2.2343984344789050e+00 -4.7523403497085441e+00 -2.2640771455824229e+00 -1 0 1
248 81 7 4.2399999999999999e-01 -9.6212431077914502e+00 -2.8130825231980285e+00 -7.3729990688118416e+00 1 1 1
619 204 7 4.2399999999999999e-01 -9.7855140326137136e+00 -8.8520858437399159e+00 -2.8208147415588041e+00 0 -1 1
328 107 7 4.2399999999999999e-01 -9.1314794695059831e-01 -2.3746815202854350e+00 -1.0741616304382378e+01 -1 -1 1
639 211 8 -8.4799999999999998e-01 -9.2478080589377640e+00 -5.5346883191594447e+00 -2.5486665217758251e+00 0 1 -1
706 233 7 4.2399999999999999e-01 -8.7930419036246814e+00 -9.2239961081345463e+00 -6.9235752538602515e+00 2 -2 1
698 231 7 4.2399999999999999e-01 -7.7142943569788969e-01 -1.0977416135402592e+01 -1.9297019583493373e+00 0 0 1
377 124 7 4.2399999999999999e-01 -1.0079026661227113e+01 -7.9177629131198266e+00 -9.0446470315426364e+00 1 0 0
1026 340 8 -8.4799999999999998e-01 -2.0457961147792041e+00 -1.5498908490206311e+00 -3.7820046481436753e+00 0 2 1
1073 356 7 4.2399999999999999e-01 -8.2734643355023518e+00 -7.3257418928392255e+00 -5.0341488649462285e+00 1 1 1
985 326 7 4.2399999999999999e-01 -1.1998996556085082e+00 -1.4956406864396232e+00 -6.7519017614062591e+00 -1 -1 1
640 211 7 4.2399999999999999e-01 -8.6691963649256074e+00 -5.9553462192953974e+00 -3.2474403137439607e+00 0 1 -1
705 233 8 -8.4799999999999998e-01 -8.4275340100347371e+00 -9.6208709715051288e+00 -6.0815973711656364e+00 2 -2 1
794 263 7 4.2399999999999999e-01 -6.0391704547347640e+00 -1.0911858264944307e+01 -3.7628502506285644e+00 1 1 0
534 176 8 -8.4799999999999998e-01 -2.5787544453902242e+00 -1.0532714105718632e+01 -4.9729028069461982e+00 1 0 0
434 143 7 4.2399999999999999e-01 -2.8130073437332097e+00 -5.5607894221366703e+00 -2.3720192215913531e+00 -1 0 1
608 201 7 4.2399999999999999e-01 -1.0834074728071323e+01 -5.6604649545908217e+00 -3.0642008368017510e+00 1 2 1
399 131 8 -8.4799999999999998e-01 -2.7040810608473294e+00 -8.3633644994743186e+00 -2.7953276496038164e+00 -2 2 1
130 41 7 4.2399999999999999e-01 -1.1017179157291716e+01 -3.6735243901195869e+00 -9.1394469233572249e+00 0 1 -1
888 294 8 -8.4799999999999998e-01 -7.0468964662865448e+00 -3.8667685427613385e-01 -5.2691870285630547e+00 1 0 -1
74 23 7 4.2399999999999999e-01 -4.8180546432076916e+00 -6.8130109266094925e+00 -7.7022735680638910e-01 2 -1 2
717 237 8 -8.4799999999999998e-01 -4.3771836165125046e+00 -8.9707405305864487e+00 -1.0462913161054562e+01 0 2 2
259 84 7 4.2399999999999999e-01 -3.3196662729766953e+00 -2.2114475325467620e+00 -7.8732385629997976e+00 3 0 1
1071 355 8 -8.4799999999999998e-01 -7.1334478678957858e+00 -9.0894002294619654e+00 -7.1922089920951926e-01 -2 1 1
274 89 7 4.2399999999999999e-01 -8.6110933790489064e+00 -2.6328627756834795e+00 -1.0500717282060663e+01 1 1 0
628 207 7 4.2399999999999999e-01 -4.2676633787987459e+00 -1.0227174574609952e+01 -1.0432569392534639e+00 1 -1 -2
984 326 8 -8.4799999999999998e-01 -2.1971121944070813e+00 -1.4449264598365641e+00 -6.6968825279514261e+00 -1 -1 1
382 125 7 4.2399999999999999e-01 -5.6814602294091436e+00 -1.7020823175230433e+00 -7.6992311088410244e+00 1 0 0
257 84 7 4.2399999999999999e-01 -3.0932435696881049e+00 -2.6478758071225013e+00 -9.4304694114020062e+00 3 0 1
854 283 7 4.2399999999999999e-01 -6.1854034748581297e+00 -1.1049217716478763e+01 -5.5758346305857769e+00 1 0 0
537 177 8 -8.4799999999999998e-01 -4.1639688177557392e+00 -2.8399156508261747e+00 -1.9513402924109204e+00 0 -1 0
361 118 7 4.2399999999999999e-01 -8.0591788061554333e+00 -9.4316382421288623e+00 -3.9346493990727867e+00 -2 1 -1
208 67 7 4.2399999999999999e-01 -3.3848617502929379e+00 -2.3120180120581981e+00 -5.1500337031115606e-01 0 0 -1
538 177 7 4.2399999999999999e-01 -3.4354786052002551e+00 -3.4579057441114482e+00 -2.2470076030025190e+00 0 -1 0
1074 356 8 -8.4799999999999998e-01 -8.3974970674896490e+00 -6.3933288012514824e+00 -5.3736364816329427e+00 1 1 1
63 19 8 -8.4799999999999998e-01 -2.0800064512578604e+00 -7.3096959160866906e+00 -8.0326610323263576e+00 0 2 2
824 273 7 4.2399999999999999e-01 -8.3537490320975287e+00 -7.5610307539209742e+00 -7.6317612027760973e-01 1 1 1
529 174 7 4.2399999999999999e-01 -1.0467761304020502e+01 -1.3066920691030663e+00 -2.5439090569680367e-01 -1 0 1
326 107 7 4.2399999999999999e-01 -1.8620406896463244e+00 -3.6667976984582040e+00 -1.0430580057482542e+01 -1 -1 1
490 161 7 4.2399999999999999e-01 -8.8610396625353012e+00 -4.0292637840939749e+00 -1.6490867124961568e+00 1 1 1
272 89 7 4.2399999999999999e-01 -7.8278790640637705e+00 -2.1774321927597775e+00 -9.1420918003784770e+00 1 1 0
62 19 7 4.2399999999999999e-01 -2.9380350566451643e+00 -7.8205626206867684e+00 -7.9794188694131538e+00 0 2 2
258 84 8 -8.4799999999999998e-01 -3.7747323873126168e+00 -2.5126854743333968e+00 -8.7112137683104578e+00 3 0 1
400 131 7 4.2399999999999999e-01 -1.9323621106187883e+00 -8.9398321722277743e+00 -2.5266927185139920e+00 -2 2 1
488 161 7 4.2399999999999999e-01 -9.1407833224152260e+00 -2.4687014052923963e+00 -1.2578189646624764e+00 1 1 1
1007 334 7 4.2399999999999999e-01 -3.2523238479747718e-01 -3.4946062290034545e+00 -8.9516665096933679e+00 0 0 1
1072 355 7 4.2399999999999999e-01 -6.2289762672782265e+00 -9.5059278160205967e+00 -6.2721550867912690e-01 -2 1 1
450 148 8 -8.4799999999999998e-01 -1.0886412981133285e+01 -5.8349221918977756e+00 -6.3851180427022207e+00 2 1 2
983 326 7 4.2399999999999999e-01 -2.4698751271905817e+00 -1.2601809160656305e+00 -5.7526890699602715e+00 -1 -1 1
844 279 7 4.2399999999999999e-01 -6.8956000028179263e+00 -3.7922252808149102e+00 -6.7104588976927992e-01 2 1 -1
520 171 7 4.2399999999999999e-01 -7.3350465512470002e+00 -4.9478402340718066e+00 -1.0109278545079365e+01 1 1 2
699 231 8 -8.4799999999999998e-01 -4.7777773801371026e-01 -1.0028399171834792e+01 -2.0444480842239088e+00 0 0 1
845 280 7 4.2399999999999999e-01 -1.0107447597991976e+01 -1.0699683750568724e+01 -9.7624189133934891e-02 -1 0 0
736 243 7 4.2399999999999999e-01 -4.7175740361756766e+00 -2.6311645817180906e+00 -1.0269887175643182e+01 0 -1 1
1005 333 8 -8.4799999999999998e-01 -1.8893077008080414e+00 -5.4485830813113898e+00 -1.0194237150466559e+01 -1 -1 0
273 89 8 -8.4799999999999998e-01 -8.6317137361523688e+00 -2.6517721937901602e+00 -9.5010935462428527e+00 1 1 0
359 118 7 4.2399999999999999e-01 -7.8034266475706229e+00 -9.1861478148734061e+00 -2.3405874754403762e+00 -2 1 -1
533 176 7 4.2399999999999999e-01 -2.8209861681203492e+00 -1.0890153313487371e+01 -5.8748966625125734e+00 1 0 0
449 148 7 4.2399999999999999e-01 -1.0712795780083900e+01 -4.8530665125154959e+00 -6.4615739071407221e+00 2 1 2
618 204 8 -8.4799999999999998e-01 -1.0681158770386808e+01 -9.1685334366049247e+00 -2.5082239978781473e+00 0 -1 1
1075 356 7 4.2399999999999999e-01 -9.2103873169913424e+00 -6.3555987110095851e+00 -5.9548566343978004e+00 1 1 1
718 237 7 4.2399999999999999e-01 -4.4242747212442923e+00 -8.4192309846431215e+00 -9.6300570051268206e+00 0 2 2
638 211 7 4.2399999999999999e-01 -9.2745740302168400e+00 -6.1223995386106687e+00 -1.7400202787496202e+00 0 1 -1
480 158 8 -8.4799999999999998e-01 -4.4092529152601587e+00 -6.4949454105717779e+00 -3.9465886872379610e+00 1 1 -1
963 319 8 -8.4799999999999998e-01 -7.5169211165592325e+00 -5.4841927112634421e+00 -8.3542254190199685e+00 1 0 0
1016 337 7 4.2399999999999999e-01 -3.8668954077369477e-01 -1.0014410387676998e+01 -1.0282549807208888e+01 0 0 -1
843 279 8 -8.4799999999999998e-01 -5.9868666662522223e+00 -3.9540184665280194e+00 -2.8626475287339481e-01 2 1 -1
378 124 8 -8.4799999999999998e-01 -9.7515117204003747e+00 -8.6224201798022051e+00 -8.4151840826305637e+00 1 0 0
379 124 7 4.2399999999999999e-01 -1.0501002570831014e+01 -9.2465465474305297e+00 -8.1943682682528340e+00 1 0 0
825 273 8 -8.4799999999999998e-01 -9.1439242672041896e+00 -7.0291903829389790e+00 -4.5854297407087152e-01 1 1 1
704 233 7 4.2399999999999999e-01 -7.4486009715302730e+00 -9.7928787133057043e+00 -6.1917587523425626e+00 2 -2 1
60 18 8 -8.4799999999999998e-01 -5.1951103370001279e+00 -9.5821533120018607e+00 -3.2267270079372166e+00 0 -2 0
790 261 7 4.2399999999999999e-01 -5.2135096630088231e+00 -7.4430877927141825e+00 -7.3600402255161690e+00 -1 -1 0
59 18 7 4.2399999999999999e-01 -4.2935901852266030e+00 -9.2859985557148192e+00 -3.5422957558891133e+00 0 -2 0
1006 333 7 4.2399999999999999e-01 -1.8881538972487402e+00 -6.1243640793952787e+00 -9.4571139460912583e+00 -1 -1 0
25 6 7 4.2399999999999999e-01 -5.4012361525745174e+00 -4.2096852900216541e+00 -6.3721883646893014e+00 1 0 1
689 228 7 4.2399999999999999e-01 -5.4465755476453293e+00 -1.0571051310395383e+00 -4.4876156069997082e+00 1 -1 0
380 125 7 4.2399999999999999e-01 -6.0877004656516025e+00 -4.0873622579579028e-01 -8.6096869091349522e+00 1 0 0
789 261 8 -8.4799999999999998e-01 -4.6810110125351541e+00 -8.2374776548032091e+00 -7.6523087580919729e+00 -1 -1 0
479 158 7 4.2399999999999999e-01 -3.7646897251341409e+00 -7.2221449654610170e+00 -3.7104742616234780e+00 1 1 -1
788 261 7 4.2399999999999999e-01 -4.9078646266038444e+00 -9.0216506557238549e+00 -7.0746908929713612e+00 -1 -1 0
535 176 7 4.2399999999999999e-01 -2.4109736110827402e+00 -9.5490418199778766e+00 -5.0382288162142990e+00 1 0 0
76 23 7 4.2399999999999999e-01 -5.7699875357256856e+00 -5.5362703293031075e+00 -1.1314224702854574e+00 2 -1 2
528 174 8 -8.4799999999999998e-01 -1.0511729802652608e+01 -1.2014606256387417e+00 -1.2478814349443237e+00 -1 0 1
1027 340 7 4.2399999999999999e-01 -1.4704525731674725e+00 -2.3659272173231525e+00 -3.7263764606672254e+00 0 2 1
690 228 8 -8.4799999999999998e-01 -4.9826769634980694e+00 -1.8950456980237753e+00 -4.2000684838458531e+00 1 -1 0
739 244 7 4.2399999999999999e-01 -1.6591861520209736e+00 -4.3186929956055646e+00 -1.7067920867417641e-01 0 0 -1
654 216 8 -8.4799999999999998e-01 -2.8441744967508473e+00 -7.3730494657050407e+00 -4.1495072782744558e-03 0 0 0
84 26 8 -8.4799999999999998e-01 -7.4446795434984026e+00 -9.1297934421500315e-01 -1.0372962566922261e-01 0 0 1
627 207 8 -8.4799999999999998e-01 -4.4582612982004024e+00 -1.0052916517255451e+01 -7.7163572433603278e-02 1 -1 -2
1004 333 7 4.2399999999999999e-01 -2.6633962745612969e+00 -5.6211011995308482e+00 -1.0803379430104773e+01 -1 -1 0
716 237 7 4.2399999999999999e-01 -5.1482334559204244e+00 -8.7429402604086199e+00 -1.1057573030227889e+01 0 2 2
178 57 7 4.2399999999999999e-01 -2.8860437343681369e+00 -6.6961806727659274e+00 4.2473517684062578e+00 -1 -1 0
921 305 8 -8.4799999999999998e-01 -1.1034169735247552e+01 -1.5208420337501138e-01 5.2991780852223016e+00 -1 1 -1
561 185 8 -8.4799999999999998e-01 -6.5271322266089511e+00 -8.4167590702879025e+00 1.0012943764984882e+01 -2 -1 -2
1053 349 8 -8.4799999999999998e-01 -5.1356767579702867e+00 -6.0185914919218657e+00 9.7192633382601592e+00 0 0 -2
1082 359 7 4.2399999999999999e-01 -7.2267224806358179e+00 -7.4183863368226355e-01 2.6405926181911887e+00 1 0 1
951 315 8 -8.4799999999999998e-01 -4.8875599008870507e+00 -6.4567320180874024e+00 6.3074692780238522e+00 0 0 0
11 2 7 4.2399999999999999e-01 -6.0851029373251224e+00 -2.8686309863632822e+00 8.0418848015542252e+00 -1 1 -1
865 286 7 4.2399999999999999e-01 -9.3494049016155909e+00 -3.8689139987693801e+00 3.4531913403856347e+00 0 1 1
92 29 7 4.2399999999999999e-01 -5.0855152809998234e+00 -1.0936232707551717e+01 5.4385079349962524e+00 2 0 -3
737 244 7 4.2399999999999999e-01 -1.7694528823780988e+00 -4.4841076773750634e+00 1.4501800562310905e+00 0 0 -1
666 220 8 -8.4799999999999998e-01 -1.7060231898492582e+00 -3.6766871234295389e+00 3.2021063598896884e+00 0 -1 0
1022 339 7 4.2399999999999999e-01 -7.9287378926129630e+00 -8.7369851168439965e+00 1.8130392913624060e+00 0 0 -1
914 303 7 4.2399999999999999e-01 -9.9810593660429454e+00 -1.2227837334879457e+00 7.7885348921796940e+00 0 0 0
201 65 8 -8.4799999999999998e-01 -3.0558502957526805e+00 -8.1891493657012155e+00 7.1083858304169709e+00 1 0 0
620 205 7 4.2399999999999999e-01 -8.1182506684298090e+00 -5.7432243979681976e+00 1.0094157952485507e+01 2 -1 1
1035 343 8 -8.4799999999999998e-01 -7.9663074415785786e+00 -4.1082834529055345e+00 4.2832670128977579e+00 2 2 0
514 169 7 4.2399999999999999e-01 -3.7539579823082123e+00 -4.8927665603875434e+00 9.2155616128455655e+00 0 1 1
916 303 7 4.2399999999999999e-01 -8.7263876624216508e+00 -3.9192912895710030e-01 8.4227156328439250e+00 0 0 0
512 169 7 4.2399999999999999e-01 -2.3967271054992665e+00 -4.3696022740600204e+00 8.4733159178503641e+00 0 1 1
13 2 7 4.2399999999999999e-01 -4.4860545266161802e+00 -3.1663942093769846e+00 8.1870948095187259e+00 -1 1 -1
547 180 7 4.2399999999999999e-01 -4.6817733867990059e+00 -2.3525582705928265e+00 3.9903927004553843e+00 0 1 1
603 199 8 -8.4799999999999998e-01 -3.8724143611347772e+00 -5.3086787587998199e+00 3.9419812895479236e+00 1 0 -1
641 212 7 4.2399999999999999e-01 -5.2352314721420186e+00 -1.1627841341247223e+00 1.9079441984625500e+00 1 0 0
552 182 8 -8.4799999999999998e-01 -5.9587821105729022e+00 -5.2759203995347406e+00 2.0499437203736797e+00 0 0 2
417 137 8 -8.4799999999999998e-01 -2.3757166838040256e+00 -7.7241057279318825e+00 9.6260763937662226e+00 -1 0 -1
177 57 8 -8.4799999999999998e-01 -2.2306173464733074e+00 -7.3495626734782675e+00 4.6262159433374208e+00 -1 -1 0
621 205 8 -8.4799999999999998e-01 -8.8333418297093598e+00 -5.9747116167689809e+00 9.4345455762994987e+00 2 -1 1
734 243 7 4.2399999999999999e-01 -3.7755975694651651e+00 -2.7958912098698185e+00 1.0549909772872287e+01 0 -1 0
86 27 7 4.2399999999999999e-01 -9.2747105410884672e+00 -7.3809648364627334e+00 8.5651058945621124e+00 1 1 1
1076 357 7 4.2399999999999999e-01 -1.0726368328792178e+01 -5.4494452143121235e+00 2.1098401843323273e+00 -2 0 -2
176 57 7 4.2399999999999999e-01 -2.5105566207251897e+00 -7.6037123360401697e+00 5.5519976870857235e+00 -1 -1 0
345 113 8 -8.4799999999999998e-01 -2.7996305426491102e+00 -1.9380915705737323e-01 5.5133701602495577e+00 2 0 0
1023 339 8 -8.4799999999999998e-01 -8.7592639249779651e+00 -9.0628098650337225e+00 1.3612705823905866e+00 0 0 -1
416 137 7 4.2399999999999999e-01 -3.1508771962092847e+00 -7.7287164612532759e+00 1.0257846970312780e+01 -1 0 -1
669 221 8 -8.4799999999999998e-01 -3.1450393755896426e+00 -8.7359942719539632e+00 2.4720110086155707e+00 -2 1 -1
738 244 8 -8.4799999999999998e-01 -1.3222789237111385e+00 -4.8249376247838018e+00 6.2319709636287079e-01 0 0 -1
57 17 8 -8.4799999999999998e-01 -7.6592320804494705e+00 -5.5377007932084847e+00 6.6407107823498208e+00 0 1 1
200 65 7 4.2399999999999999e-01 -3.1864379797439586e+00 -9.1603379808793122e+00 6.9089636079923196e+00 1 0 0
551 182 7 4.2399999999999999e-01 -6.7105115219726352e+00 -4.8755448639651107e+00 2.5739957762909462e+00 0 0 2
323 106 7 4.2399999999999999e-01 -7.9994499683568137e+00 -8.7072025013090517e+00 4.9549823126484469e+00 0 0 -1
553 182 7 4.2399999999999999e-01 -5.9730065416781386e+00 -4.9147330539884457e+00 1.1175432287354745e+00 0 0 2
643 212 7 4.2399999999999999e-01 -6.2707773930132920e+00 -2.4061573717861648e+00 1.6880078114770569e+00 1 0 0
513 169 8 -8.4799999999999998e-01 -3.1700323627429121e+00 -4.0987170872759986e+00 9.0465964785251565e+00 0 1 1
642 212 8 -8.4799999999999998e-01 -5.7253317150396033e+00 -1.9071947995250031e+00 2.3614730750969262e+00 1 0 0
157 50 7 4.2399999999999999e-01 -5.8304308301376970e+00 -7.5241900719769585e+00 5.3485717739070537e+00 -1 1 -1
665 220 7 4.2399999999999999e-01 -1.7707515402125562e+00 -2.7563451855242960e+00 2.8163435387900915e+00 0 -1 0
325 106 7 4.2399999999999999e-01 -9.6155759552790752e+00 -8.5663493062806033e+00 5.1420746472944110e+00 0 0 -1
863 286 7 4.2399999999999999e-01 -1.0189768699438787e+01 -3.1908842160135524e+00 2.2281326765812093e+00 0 1 1
668 221 7 4.2399999999999999e-01 -3.1504209525337847e+00 -9.7087650872258600e+00 2.7037838173301836e+00 -2 1 -1
105 33 8 -8.4799999999999998e-01 -7.8768974491010209e+00 -1.5929009276140267e+00 5.2945953022391592e+00 0 1 -1
104 33 7 4.2399999999999999e-01 -8.2939071324033318e+00 -1.4082798783826682e+00 6.1845675272574425e+00 0 1 -1
759 251 8 -8.4799999999999998e-01 -1.1817542409299051e+00 -5.9381326145350410e+00 7.9327334915038072e+00 1 0 -2
545 180 7 4.2399999999999999e-01 -5.0283792318830773e+00 -2.4565085010543353e+00 5.5828009251637170e+00 0 1 1
463 152 7 4.2399999999999999e-01 -6.1767919196072185e-01 -7.8714035458898461e+00 4.0125454881206242e+00 0 2 0
833 276 7 4.2399999999999999e-01 -6.2384797091508020e+00 -2.3539748208120965e+00 1.0568313223634242e+01 0 1 1
1028 341 7 4.2399999999999999e-01 -1.0945173165807532e+01 -8.8412808302600965e+00 9.0891713484947196e+00 1 0 0
697 230 7 4.2399999999999999e-01 -1.6237513092559475e-01 -5.5216839269415630e-01 1.0005072036159941e+01 0 -2 -2
864 286 8 -8.4799999999999998e-01 -1.0142704023134026e+01 -3.9703402434415782e+00 2.8528428189636230e+00 0 1 1
835 276 7 4.2399999999999999e-01 -7.3795290477973268e+00 -1.2879112747339416e+00 1.0090589317400724e+01 0 1 1
106 33 7 4.2399999999999999e-01 -8.3765141315164406e+00 -1.0983578052362013e+00 4.5833710209968785e+00 0 1 -1
915 303 8 -8.4799999999999998e-01 -9.1202185170862897e+00 -7.5864126050959158e-01 7.5798330782324115e+00 0 0 0
206 67 7 4.2399999999999999e-01 -3.7635455800032283e+00 -9.5040534470396842e-01 3.0311317640473945e-01 0 0 -1
418 137 7 4.2399999999999999e-01 -1.6818504196938591e+00 -8.3697022735923383e+00 9.9451137175754880e+00 -1 0 -1
874 289 7 4.2399999999999999e-01 -3.5309809453124075e+00 -2.1798543673097015e-01 7.2208657626411465e+00 0 0 1
214 69 7 4.2399999999999999e-01 -8.0116024391938367e-01 -9.5699341827605249e+00 4.8542614950009053e+00 1 1 0
834 276 8 -8.4799999999999998e-01 -7.2038886615546396e+00 -2.2421427889071097e+00 1.0332708895990219e+01 0 1 1
310 101 7 4.2399999999999999e-01 -1.0911237558573879e+01 -3.1081507499926682e+00 8.8280695658491695e+00 0 -1 -1
87 27 8 -8.4799999999999998e-01 -9.7718394223116753e+00 -8.1457081353385181e+00 8.1551544465004753e+00 1 1 1
1024 339 7 4.2399999999999999e-01 -9.2370876678691776e+00 -9.7025678065434722e+00 1.9632895700720034e+00 0 0 -1
442 145 7 4.2399999999999999e-01 -1.1022697689317047e+01 -7.1272413972470829e+00 7.0443908323644244e+00 0 0 -1
626 207 7 4.2399999999999999e-01 -3.6730173118871363e+00 -9.5955777600749776e+00 3.4028437996948746e-01 1 -1 -2
1052 349 7 4.2399999999999999e-01 -5.4506603508779934e+00 -6.9552658222938151e+00 9.8724285449159233e+00 0 0 -2
501 165 8 -8.4799999999999998e-01 -2.9279055096711790e+00 -1.0907862938237733e+01 7.0747452590143602e+00 0 1 -1
554 183 7 4.2399999999999999e-01 -1.7358916457890086e+00 -4.4853743139999551e+00 6.6537822126092543e+00 0 1 -1
85 26 7 4.2399999999999999e-01 -7.9588196528731965e+00 -8.5885211406093021e-01 7.5228440069386515e-01 0 0 1
401 132 7 4.2399999999999999e-01 -5.9424755254661541e+00 -6.9636508389673999e+00 2.1269700183335019e+00 -1 1 -3
12 2 8 -8.4799999999999998e-01 -5.1764456331966038e+00 -2.6359466046421129e+00 7.6951432046234984e+00 -1 1 -1
950 315 7 4.2399999999999999e-01 -4.5941127430603821e+00 -5.6884823992625293e+00 5.7385133573394391e+00 0 0 0
324 106 8 -8.4799999999999998e-01 -8.8313865261077424e+00 -9.1775378670347347e+00 5.2494309390570919e+00 0 0 -1
760 251 7 4.2399999999999999e-01 -1.6030391868150478e+00 -6.3384212058385314e+00 8.7465648720705573e+00 1 0 -2
1036 343 7 4.2399999999999999e-01 -7.7905055533553451e+00 -3.2306308288016981e+00 4.7291916594300485e+00 2 2 0
758 251 7 4.2399999999999999e-01 -5.4222922653829109e-01 -6.5939948478568819e+00 7.5316298544671909e+00 1 0 -2
19 4 7 4.2399999999999999e-01 -7.6224051964476578e+00 -1.0290012645964756e+01 7.2261189771072623e+00 1 1 0
1034 343 7 4.2399999999999999e-01 -8.1272826497103026e+00 -4.8089874654621720e+00 4.9783428434759465e+00 2 2 0
667 220 7 4.2399999999999999e-01 -9.1274613925288506e-01 -3.7287849678687799e+00 3.8087614711220592e+00 0 -1 0
562 185 7 4.2399999999999999e-01 -6.8023862562572015e+00 -9.0115082120179260e+00 9.2576011251465324e+00 -2 -1 -2
670 221 7 4.2399999999999999e-01 -3.0129239422795902e+00 -8.1960166891159254e+00 3.3032768737719014e+00 -2 1 -1
155 50 7 4.2399999999999999e-01 -6.5594846568619820e+00 -7.9097777638599105e+00 3.9391348489236400e+00 -1 1 -1
556 183 7 4.2399999999999999e-01 -2.3027610482590362e+00 -3.8177449133154218e+00 5.2755103073645522e+00 0 1 -1
809 268 7 4.2399999999999999e-01 -6.4309795199336683e-01 -2.6282497497375967e+00 6.8059713636380508e+00 0 0 0
966 320 8 -8.4799999999999998e-01 -1.0643362651475154e+01 -1.6454834240268994e+00 1.3806310690757133e+00 1 0 1
622 205 7 4.2399999999999999e-01 -9.4896784812779824e+00 -5.2224413995655281e+00 9.3767509162071718e+00 2 -1 1
18 4 8 -8.4799999999999998e-01 -7.7558748654101173e+00 -1.0120237900960689e+01 8.2025378318355919e+00 1 1 0
346 113 7 4.2399999999999999e-01 -3.4311467635306476e+00 -9.4558460704541680e-01 5.3234952557057760e+00 2 0 0
952 315 7 4.2399999999999999e-01 -4.0881495032608219e+00 -6.8806271873967200e+00 6.7332488041197003e+00 0 0 0
511 168 7 4.2399999999999999e-01 -3.1040502106866441e-01 -1.0313964364703880e+01 9.9200473449037716e+00 -1 1 0
88 27 7 4.2399999999999999e-01 -9.1451296833053721e+00 -8.9114423607333393e+00 8.0105322974878277e+00 1 1 1
965 320 7 4.2399999999999999e-01 -1.0263048911214028e+01 -8.0465090732785249e-01 1.7658487295807639e+00 1 0 1
555 183 8 -8.4799999999999998e-01 -1.6824404379190874e+00 -3.6904025951611716e+00 6.0494710424688591e+00 0 1 -1
826 273 7 4.2399999999999999e-01 -9.6447581210117264e+00 -7.5447924393837429e+00 2.3669093369858274e-01 1 1 1
1083 359 8 -8.4799999999999998e-01 -8.1426880643066788e+00 -3.6143136347286919e-01 2.7683802693203123e+00 1 0 1
819 271 8 -8.4799999999999998e-01 -1.7667972650117942e+00 -5.9821916912090778e-01 2.6413648102060350e+00 0 0 1
546 180 8 -8.4799999999999998e-01 -4.3055924726956389e+00 -2.2815221167853625e+00 4.9142283982676069e+00 0 1 1
1054 349 7 4.2399999999999999e-01 -5.7707389911055849e+00 -5.3784722329870522e+00 1.0151671883574458e+01 0 0 -2
510 168 8 -8.4799999999999998e-01 -4.9288532850636635e-01 -9.3653316392389527e+00 1.0178556175493213e+01 -1 1 0
207 67 8 -8.4799999999999998e-01 -3.2354352689108863e+00 -1.7991619557792493e+00 3.3038556706472733e-01 0 0 -1
653 216 7 4.2399999999999999e-01 -3.0138442520103759e+00 -7.7367902627202110e+00 9.1178671853231030e-01 0 0 0
655 216 7 4.2399999999999999e-01 -2.3095361163711310e+00 -6.5308196662761651e+00 6.5447285384587772e-02 0 0 0
402 132 8 -8.4799999999999998e-01 -6.3300349310156632e+00 -7.8639835131544977e+00 2.3250469066474331e+00 -1 1 -3
403 132 7 4.2399999999999999e-01 -5.8506419418873401e+00 -8.5585787913562168e+00 1.7886244015677466e+00 -1 1 -3
873 289 8 -8.4799999999999998e-01 -4.1362447800145912e+00 -2.6366221779222343e-01 8.0155979751131454e+00 0 0 1
502 165 7 4.2399999999999999e-01 -2.1559206256351828e+00 -1.0917606322659537e+01 6.4391533511098586e+00 0 1 -1
156 50 8 -8.4799999999999998e-01 -6.4153896212057822e+00 -8.1916340146009468e+00 4.8877281380375397e+00 -1 1 -1
604 199 7 4.2399999999999999e-01 -4.6799484073744351e+00 -5.2049073487199760e+00 3.3613323059032520e+00 1 0 -1
202 65 7 4.2399999999999999e-01 -2.5722646911333396e+00 -8.0895302246256584e+00 7.9780125971161588e+00 1 0 0
56 17 7 4.2399999999999999e-01 -8.0251319002528696e+00 -5.2199787261071169e+00 7.5154674748346970e+00 0 1 1
602 199 7 4.2399999999999999e-01 -3.1601304014155644e+00 -4.6757421729548110e+00 3.6385383366058335e+00 1 0 -1
58 17 7 4.2399999999999999e-01 -6.9324989136554525e+00 -6.2045004144274376e+00 6.8058377491833966e+00 0 1 1
213 69 8 -8.4799999999999998e-01 -1.0347117870943610e+00 -1.0491562159491528e+01 5.1642378613273259e+00 1 1 0
872 289 7 4.2399999999999999e-01 -4.6552004386484915e+00 -1.1181175018324261e+00 7.9906690249077705e+00 0 0 1
820 271 7 4.2399999999999999e-01 -9.5367096480656066e-01 -4.3943869574562378e-01 2.0813246620632153e+00 0 0 1
93 29 8 -8.4799999999999998e-01 -4.6144731725983803e+00 -1.0359674128832941e+01 4.7708783332146094e+00 2 0 -3
309 101 8 -8.4799999999999998e-01 -1.0649450652921953e+01 -3.9445407900065605e+00 9.3096795310885057e+00 0 -1 -1
884 293 7 4.2399999999999999e-01 -9.8170365730388269e+00 -1.0646234035992398e+01 5.6053951570294061e+00 2 2 0
920 305 7 4.2399999999999999e-01 -1.0570315105784760e+01 -8.8871183212118154e-01 4.8069913897884025e+00 -1 1 -1
500 165 7 4.2399999999999999e-01 -3.7842138199040196e+00 -1.0946514092466256e+01 6.5596990592541964e+00 0 1 -1
818 271 7 4.2399999999999999e-01 -2.5822188185065436e+00 -3.2871424273491456e-01 2.1290327871485761e+00 0 0 1
735 243 8 -8.4799999999999998e-01 -4.7083097071901081e+00 -2.6369865596259832e+00 1.0873680372233395e+01 0 -1 0
17 4 7 4.2399999999999999e-01 -7.4943467694003800e+00 -1.0934258965241566e+01 8.7211952322738142e+00 1 1 0
94 29 7 4.2399999999999999e-01 -5.1573606170714825e+00 -9.5377563090437771e+00 4.5983849107006307e+00 2 0 -3
560 185 7 4.2399999999999999e-01 -7.3343276293031803e+00 -8.1542269795382669e+00 1.0541662130861894e+01 -2 -1 -2
518 171 7 4.2399999999999999e-01 -7.0953773414883550e+00 -3.8920556577751473e+00 1.0811713313399242e+01 1 1 1
440 145 7 4.2399999999999999e-01 -1.0916940862181910e+01 -5.5004347123823578e+00 7.1393686872340538e+00 0 0 -1
1070 355 7 4.2399999999999999e-01 -7.6559742570666902e+00 -9.2383621771244435e+00 1.2030796347200301e-01 -2 1 1