LAMMPS (11 Nov 2013)
# created by fftool

units real
boundary p p p

atom_style full
bond_style harmonic
angle_style harmonic
dihedral_style opls
special_bonds lj/coul 0.0 0.0 0.5

read_data data.0.lmp
  1 = max bonds/atom
  10 = max angles/atom
  12 = max dihedrals/atom
  orthogonal box = (-11.0718 -11.0718 -11.0718) to (11.0718 11.0718 11.0718)
  2 by 2 by 2 MPI processor grid
  1090 atoms
  1090 velocities
  729 bonds
  377 angles
  16 dihedrals
  5 = max # of 1-2 neighbors
  4 = max # of 1-3 neighbors
  8 = max # of 1-4 neighbors
  9 = max # of special neighbors
# read_restart restart.*.lmp
# reset_timestep 0

pair_style hybrid lj/cut/coul/long 10.0 10.0   lj/cut/coul/long/soft 1 0.5 10.0 10.0 10.0
pair_modify tail no
kspace_style pppm 1.0e-4

pair_coeff    1    1  none  # C-CO C-CO
pair_coeff    1    2  none  # C-CO C-D
pair_coeff    1    3  none  # C-CO H-D
pair_coeff    1    4  none  # C-CO H-H1
pair_coeff    1    5  none  # C-CO OHD-
pair_coeff    1    6  none  # C-CO HOD-
pair_coeff    1    7  lj/cut/coul/long    0.0000   1.0000  # C-CO Hw
pair_coeff    1    8  lj/cut/coul/long    0.1013   3.3286  # C-CO Ow
pair_coeff    2    2  none  # C-D C-D
pair_coeff    2    3  none  # C-D H-D
pair_coeff    2    4  none  # C-D H-H1
pair_coeff    2    5  none  # C-D OHD-
pair_coeff    2    6  none  # C-D HOD-
pair_coeff    2    7  lj/cut/coul/long/soft    0.0000   1.0000  1.0  # C-D Hw
pair_coeff    2    8  lj/cut/coul/long/soft    0.1013   3.3286  1.0  # C-D Ow
pair_coeff    3    3  none  # H-D H-D
pair_coeff    3    4  lj/cut/coul/long/soft    0.0300   2.5000  1.0  # H-D H-H1
pair_coeff    3    5  none  # H-D OHD-
pair_coeff    3    6  none  # H-D HOD-
pair_coeff    3    7  lj/cut/coul/long/soft    0.0000   1.0000  1.0  # H-D Hw
pair_coeff    3    8  lj/cut/coul/long/soft    0.0683   2.8131  1.0  # H-D Ow
pair_coeff    4    4  none  # H-H1 H-H1
pair_coeff    4    5  none  # H-H1 OHD-
pair_coeff    4    6  lj/cut/coul/long/soft    0.0000   1.0000  0.0 # H-H1 HOD-
pair_coeff    4    7  lj/cut/coul/long    0.0000   1.0000  # H-H1 Hw
pair_coeff    4    8  lj/cut/coul/long    0.0683   2.8131  # H-H1 Ow
pair_coeff    5    5  none  # OHD- OHD-
pair_coeff    5    6  none  # OHD- HOD-
pair_coeff    5    7  lj/cut/coul/long/soft    0.0000   1.0000  0.0  # OHD- Hw
pair_coeff    5    8  lj/cut/coul/long/soft    0.1625   3.1427  0.0  # OHD- Ow
pair_coeff    6    6  none  # HOD- HOD-
pair_coeff    6    7  lj/cut/coul/long/soft    0.0000   1.0000  0.0  # HOD- Hw
pair_coeff    6    8  lj/cut/coul/long/soft    0.0000   1.7792  0.0  # HOD- Ow
pair_coeff    7    7  lj/cut/coul/long    0.0000   1.0000  # Hw Hw
pair_coeff    7    8  lj/cut/coul/long    0.0000   1.0000  # Hw Ow
pair_coeff    8    8  lj/cut/coul/long    0.1554   3.1655  # Ow Ow

variable nsteps equal 2500000
variable nprint equal ${nsteps}/500
variable nprint equal 2500000/500
variable ndump equal ${nsteps}/100
variable ndump equal 2500000/100
# variable nrestart equal ${nsteps}/10

variable temp equal 300.0
variable press equal 1.0

neighbor 2.0 bin

timestep 2.0

# velocity all create ${temp} 12345

thermo_style multi
thermo ${nprint}
thermo 5000

fix fSHAKE all shake 0.0001 20 ${nprint} b 2 4 5 a 6
fix fSHAKE all shake 0.0001 20 5000 b 2 4 5 a 6
  1 = # of size 2 clusters
  0 = # of size 3 clusters
  2 = # of size 4 clusters
  360 = # of frozen angles

fix fNPT all npt temp ${temp} ${temp} 100 iso ${press} ${press} 500
fix fNPT all npt temp 300 ${temp} 100 iso ${press} ${press} 500
fix fNPT all npt temp 300 300 100 iso ${press} ${press} 500
fix fNPT all npt temp 300 300 100 iso 1 ${press} 500
fix fNPT all npt temp 300 300 100 iso 1 1 500

run 50000
PPPM initialization ...
  G vector (1/distance) = 0.267786
  grid = 12 12 12
  stencil order = 5
  estimated absolute RMS force accuracy = 0.0257733
  estimated relative force accuracy = 7.76155e-05
  using double precision FFTs
  3d grid and FFT values/proc = 2197 288
SHAKE stats (type/ave/delta) on step 0
  2 1.09002 3.09538e-07
  4 0.945014 1.33227e-15
  5 1.00002 4.63698e-06
  6 109.47 0.000449254
Memory usage per processor = 9.59011 Mbytes
---------------- Step        0 ----- CPU =      0.0000 (sec) ----------------
TotEng   =     -3352.3944 KinEng   =       634.1837 Temp     =       292.7828 
PotEng   =     -3986.5781 E_bond   =         0.3638 E_angle  =         1.9516 
E_dihed  =         0.0251 E_impro  =         0.0000 E_vdwl   =       752.3183 
E_coul   =     14732.1368 E_long   =    -19473.3737 Press    =       -16.5064 
Volume   =     10857.7582 
SHAKE stats (type/ave/delta) on step 5000
  2 1.08992 7.02123e-07
  4 0.944926 0
  5 0.999926 9.98301e-06
  6 109.47 0.000598801
---------------- Step     5000 ----- CPU =     13.2471 (sec) ----------------
TotEng   =     -3257.5540 KinEng   =       645.2971 Temp     =       297.9135 
PotEng   =     -3902.8510 E_bond   =         0.3720 E_angle  =         2.4638 
E_dihed  =         1.1745 E_impro  =         0.0000 E_vdwl   =       716.5622 
E_coul   =     14846.4310 E_long   =    -19469.8546 Press    =      -619.6851 
Volume   =     11315.2297 
SHAKE stats (type/ave/delta) on step 10000
  2 1.08993 1.15343e-06
  4 0.944936 0
  5 0.999933 5.88258e-06
  6 109.47 0.000587116
---------------- Step    10000 ----- CPU =     26.3979 (sec) ----------------
TotEng   =     -3343.5692 KinEng   =       653.2529 Temp     =       301.5864 
PotEng   =     -3996.8221 E_bond   =         0.1600 E_angle  =         2.6470 
E_dihed  =         0.0816 E_impro  =         0.0000 E_vdwl   =       782.8634 
E_coul   =     14690.0229 E_long   =    -19472.5970 Press    =       -41.3246 
Volume   =     11281.1287 
SHAKE stats (type/ave/delta) on step 15000
  2 1.09005 2.53114e-06
  4 0.945045 0
  5 1.00005 8.43679e-06
  6 109.47 0.000931253
---------------- Step    15000 ----- CPU =     40.1588 (sec) ----------------
TotEng   =     -3327.2970 KinEng   =       645.5524 Temp     =       298.0314 
PotEng   =     -3972.8494 E_bond   =         1.4023 E_angle  =         3.6377 
E_dihed  =         0.4118 E_impro  =         0.0000 E_vdwl   =       724.7227 
E_coul   =     14770.1366 E_long   =    -19473.1606 Press    =      -620.4745 
Volume   =     11058.9835 
SHAKE stats (type/ave/delta) on step 20000
  2 1.09017 5.84531e-07
  4 0.945147 0
  5 1.00016 4.90333e-06
  6 109.47 0.000349102
---------------- Step    20000 ----- CPU =     53.2666 (sec) ----------------
TotEng   =     -3384.3406 KinEng   =       657.0394 Temp     =       303.3346 
PotEng   =     -4041.3801 E_bond   =         1.2106 E_angle  =         6.3925 
E_dihed  =         1.5098 E_impro  =         0.0000 E_vdwl   =       796.8438 
E_coul   =     14628.5509 E_long   =    -19475.8877 Press    =       487.0335 
Volume   =     10780.5978 
SHAKE stats (type/ave/delta) on step 25000
  2 1.09001 9.68046e-08
  4 0.945006 0
  5 1.00001 3.58119e-06
  6 109.47 0.000369536
---------------- Step    25000 ----- CPU =     66.8846 (sec) ----------------
TotEng   =     -3308.1506 KinEng   =       681.8985 Temp     =       314.8112 
PotEng   =     -3990.0491 E_bond   =         0.0554 E_angle  =         4.6644 
E_dihed  =         1.0598 E_impro  =         0.0000 E_vdwl   =       765.0758 
E_coul   =     14711.8397 E_long   =    -19472.7443 Press    =      -126.7460 
Volume   =     11057.9084 
SHAKE stats (type/ave/delta) on step 30000
  2 1.08975 3.62458e-06
  4 0.944789 0
  5 0.999773 1.19286e-05
  6 109.47 0.00110274
---------------- Step    30000 ----- CPU =     80.5765 (sec) ----------------
TotEng   =     -3380.2397 KinEng   =       650.9484 Temp     =       300.5225 
PotEng   =     -4031.1881 E_bond   =         0.5199 E_angle  =         2.4212 
E_dihed  =         1.4365 E_impro  =         0.0000 E_vdwl   =       737.7212 
E_coul   =     14702.6502 E_long   =    -19475.9371 Press    =      -934.2888 
Volume   =     10900.7590 
SHAKE stats (type/ave/delta) on step 35000
  2 1.09009 5.62869e-06
  4 0.945078 0
  5 1.00009 9.85966e-06
  6 109.47 0.000988262
---------------- Step    35000 ----- CPU =     94.4992 (sec) ----------------
TotEng   =     -3292.0793 KinEng   =       674.4699 Temp     =       311.3817 
PotEng   =     -3966.5493 E_bond   =         0.5807 E_angle  =         5.6988 
E_dihed  =         0.0930 E_impro  =         0.0000 E_vdwl   =       823.8660 
E_coul   =     14675.5198 E_long   =    -19472.3075 Press    =      1955.4091 
Volume   =     10777.3480 
SHAKE stats (type/ave/delta) on step 40000
  2 1.08997 2.84608e-06
  4 0.944973 0
  5 0.999972 4.28816e-06
  6 109.47 0.000370625
---------------- Step    40000 ----- CPU =    107.7901 (sec) ----------------
TotEng   =     -3401.4932 KinEng   =       605.4092 Temp     =       279.4985 
PotEng   =     -4006.9023 E_bond   =         0.4325 E_angle  =         5.6637 
E_dihed  =         0.3240 E_impro  =         0.0000 E_vdwl   =       759.4734 
E_coul   =     14700.2454 E_long   =    -19473.0413 Press    =      -215.6472 
Volume   =     10841.2249 
SHAKE stats (type/ave/delta) on step 45000
  2 1.08987 6.40415e-06
  4 0.944886 0
  5 0.999881 1.09193e-05
  6 109.47 0.000959185
---------------- Step    45000 ----- CPU =    120.9946 (sec) ----------------
TotEng   =     -3393.5274 KinEng   =       637.7094 Temp     =       294.4105 
PotEng   =     -4031.2368 E_bond   =         0.0709 E_angle  =         5.8283 
E_dihed  =         0.2469 E_impro  =         0.0000 E_vdwl   =       762.0769 
E_coul   =     14672.3910 E_long   =    -19471.8509 Press    =       -47.5326 
Volume   =     10667.5687 
SHAKE stats (type/ave/delta) on step 50000
  2 1.08998 1.42595e-06
  4 0.944981 0
  5 0.99998 4.5141e-06
  6 109.47 0.000419932
---------------- Step    50000 ----- CPU =    134.1596 (sec) ----------------
TotEng   =     -3360.5418 KinEng   =       646.8048 Temp     =       298.6095 
PotEng   =     -4007.3465 E_bond   =         0.6676 E_angle  =         3.2941 
E_dihed  =         0.0555 E_impro  =         0.0000 E_vdwl   =       841.0778 
E_coul   =     14620.4249 E_long   =    -19472.8665 Press    =      1673.2605 
Volume   =     10728.9967 
Loop time of 134.16 on 8 procs for 50000 steps with 1090 atoms

Pair  time (%) = 67.2593 (50.1338)
Bond  time (%) = 0.188526 (0.140524)
Kspce time (%) = 25.6134 (19.0917)
Neigh time (%) = 9.76289 (7.27707)
Comm  time (%) = 13.7484 (10.2478)
Outpt time (%) = 0.000578076 (0.000430886)
Other time (%) = 17.5866 (13.1087)

FFT time (% of Kspce) = 3.0671 (11.9746)
FFT Gflps 3d (1d only) = 4.19998 53.0242

Nlocal:    136.25 ave 144 max 120 min
Histogram: 1 0 0 0 2 0 0 1 1 3
Nghost:    4211.62 ave 4286 max 4140 min
Histogram: 2 0 1 1 0 0 1 1 1 1
Neighs:    49973.9 ave 55186 max 42503 min
Histogram: 1 0 1 0 0 1 1 2 1 1

Total # of neighbors = 399791
Ave neighs/atom = 366.781
Ave special neighs/atom = 2.05872
Neighbor list builds = 4134
Dangerous builds = 690
reset_timestep 0


variable lambda equal ramp(0.0,1.0)
variable minusl equal 1.0-v_lambda
variable q1 equal  0.145*v_lambda-0.180*(1.0-v_lambda)
variable q2 equal -0.180*(1.0-v_lambda)
variable q3 equal  0.060*(1.0-v_lambda)
variable q4 equal  0.040*v_lambda+0.060*(1.0-v_lambda)
variable q5 equal -0.683*v_lambda
variable q6 equal  0.418*v_lambda

fix fADAPT all adapt 125000     pair lj/cut/coul/long/soft lambda 2*3 7*8 v_minusl     pair lj/cut/coul/long/soft lambda 3 4 v_minusl     pair lj/cut/coul/long/soft lambda 4 6 v_lambda     pair lj/cut/coul/long/soft lambda 5*6 7*8 v_lambda     atom charge 1 v_q1     atom charge 2 v_q2     atom charge 3 v_q3     atom charge 4 v_q4     atom charge 5 v_q5     atom charge 6 v_q6     after yes

variable dlambda equal 0.05
variable minusdl equal -0.05
variable dq1 equal  0.145*v_dlambda+0.180*v_dlambda
variable dq2 equal  0.180*v_dlambda
variable dq3 equal -0.060*v_dlambda
variable dq4 equal  0.040*v_dlambda-0.060*v_dlambda
variable dq5 equal -0.683*v_dlambda
variable dq6 equal  0.418*v_dlambda

compute cFEP all fep ${temp}     pair lj/cut/coul/long/soft lambda 2*3 7*8 v_minusdl     pair lj/cut/coul/long/soft lambda 3 4 v_minusdl     pair lj/cut/coul/long/soft lambda 4 6 v_dlambda     pair lj/cut/coul/long/soft lambda 5*6 7*8 v_dlambda     atom charge 1 v_dq1     atom charge 2 v_dq2     atom charge 3 v_dq3     atom charge 4 v_dq4     atom charge 5 v_dq5     atom charge 6 v_dq6
compute cFEP all fep 300     pair lj/cut/coul/long/soft lambda 2*3 7*8 v_minusdl     pair lj/cut/coul/long/soft lambda 3 4 v_minusdl     pair lj/cut/coul/long/soft lambda 4 6 v_dlambda     pair lj/cut/coul/long/soft lambda 5*6 7*8 v_dlambda     atom charge 1 v_dq1     atom charge 2 v_dq2     atom charge 3 v_dq3     atom charge 4 v_dq4     atom charge 5 v_dq5     atom charge 6 v_dq6

fix fFEP all ave/time 25 4000 125000 c_cFEP[1] c_cFEP[2] file fep01.lmp

# compute cRDF all rdf 100 1 1
# fix fRDF all ave/time 20 100 ${nsteps} c_cRDF file rdf.lammps mode vector

compute cMSD all msd
fix fMSD all ave/time 1 1 ${ndump} c_cMSD[1] c_cMSD[2] c_cMSD[3] c_cMSD[4] file msd.lammps
fix fMSD all ave/time 1 1 25000 c_cMSD[1] c_cMSD[2] c_cMSD[3] c_cMSD[4] file msd.lammps

dump dCONF all custom ${ndump} dump.lammpstrj id mol type element x y z ix iy iz
dump dCONF all custom 25000 dump.lammpstrj id mol type element x y z ix iy iz
dump_modify dCONF element C C H H O H H O

# restart ${nrestart} restart.*.lmp

run ${nsteps}
run 2500000
PPPM initialization ...
  G vector (1/distance) = 0.26812
  grid = 12 12 12
  stencil order = 5
  estimated absolute RMS force accuracy = 0.0254676
  estimated relative force accuracy = 7.6695e-05
  using double precision FFTs
  3d grid and FFT values/proc = 2197 288
FEP settings ...
  temperature = 300.000000
  tail no
  lj/cut/coul/long/soft lambda 2-3 7-8
  lj/cut/coul/long/soft lambda 3-3 4-4
  lj/cut/coul/long/soft lambda 4-4 6-6
  lj/cut/coul/long/soft lambda 5-6 7-8
  1-1 charge
  2-2 charge
  3-3 charge
  4-4 charge
  5-5 charge
  6-6 charge
SHAKE stats (type/ave/delta) on step 0
  2 1.08998 1.42595e-06
  4 0.944981 0
  5 0.99998 4.5141e-06
  6 109.47 0.000419932
Memory usage per processor = 10.7514 Mbytes
---------------- Step        0 ----- CPU =      0.0000 (sec) ----------------
TotEng   =     -3360.5494 KinEng   =       646.8048 Temp     =       298.6095 
PotEng   =     -4007.3542 E_bond   =         0.6676 E_angle  =         3.2941 
E_dihed  =         0.0555 E_impro  =         0.0000 E_vdwl   =       841.0778 
E_coul   =     14644.6617 E_long   =    -19497.1109 Press    =      1672.4057 
Volume   =     10728.9967 
SHAKE stats (type/ave/delta) on step 5000
  2 1.08996 7.40581e-08
  4 0.944964 0
  5 0.999963 4.37911e-06
  6 109.47 0.000350022
---------------- Step     5000 ----- CPU =     12.9364 (sec) ----------------
TotEng   =     -3338.9757 KinEng   =       657.9463 Temp     =       303.7532 
PotEng   =     -3996.9219 E_bond   =         0.0240 E_angle  =         3.2504 
E_dihed  =         1.6328 E_impro  =         0.0000 E_vdwl   =       754.0215 
E_coul   =     14738.1587 E_long   =    -19494.0093 Press    =      -484.6538 
Volume   =     11208.7486 
SHAKE stats (type/ave/delta) on step 10000
  2 1.08994 1.18799e-06
  4 0.94495 0
  5 0.999947 8.08915e-06
  6 109.47 0.000687006
---------------- Step    10000 ----- CPU =     25.9345 (sec) ----------------
TotEng   =     -3367.4094 KinEng   =       667.2767 Temp     =       308.0608 
PotEng   =     -4034.6861 E_bond   =         0.2275 E_angle  =         3.6303 
E_dihed  =         0.1367 E_impro  =         0.0000 E_vdwl   =       710.5404 
E_coul   =     14749.2433 E_long   =    -19498.4644 Press    =     -1551.9763 
Volume   =     11075.8440 
SHAKE stats (type/ave/delta) on step 15000
  2 1.08989 9.55959e-07
  4 0.944907 0
  5 0.999902 4.21461e-06
  6 109.47 0.000450845
---------------- Step    15000 ----- CPU =     39.0883 (sec) ----------------
TotEng   =     -3369.2831 KinEng   =       645.8725 Temp     =       298.1791 
PotEng   =     -4015.1556 E_bond   =         0.2094 E_angle  =         4.1260 
E_dihed  =         1.3158 E_impro  =         0.0000 E_vdwl   =       751.8127 
E_coul   =     14725.5817 E_long   =    -19498.2013 Press    =      -419.1183 
Volume   =     10914.0401 
SHAKE stats (type/ave/delta) on step 20000
  2 1.09004 6.82418e-07
  4 0.945032 0
  5 1.00003 4.25358e-06
  6 109.47 0.000378872
---------------- Step    20000 ----- CPU =     51.9715 (sec) ----------------
TotEng   =     -3276.1502 KinEng   =       665.0782 Temp     =       307.0458 
PotEng   =     -3941.2284 E_bond   =         0.2501 E_angle  =         4.0838 
E_dihed  =         1.4128 E_impro  =         0.0000 E_vdwl   =       715.4441 
E_coul   =     14834.3384 E_long   =    -19496.7576 Press    =      -859.6526 
Volume   =     11252.5628 
SHAKE stats (type/ave/delta) on step 25000
  2 1.09 6.76835e-07
  4 0.944996 0
  5 0.999996 5.0495e-06
  6 109.47 0.000468407
---------------- Step    25000 ----- CPU =     65.4073 (sec) ----------------
TotEng   =     -3341.8000 KinEng   =       656.2407 Temp     =       302.9658 
PotEng   =     -3998.0407 E_bond   =         0.1617 E_angle  =         2.5832 
E_dihed  =         0.9127 E_impro  =         0.0000 E_vdwl   =       768.8536 
E_coul   =     14727.7998 E_long   =    -19498.3516 Press    =       188.1661 
Volume   =     10944.5658 
SHAKE stats (type/ave/delta) on step 30000
  2 1.08999 4.77275e-07
  4 0.944994 0
  5 0.999995 5.5104e-06
  6 109.47 0.000395246
---------------- Step    30000 ----- CPU =     79.3436 (sec) ----------------
TotEng   =     -3368.6053 KinEng   =       647.3912 Temp     =       298.8803 
PotEng   =     -4015.9965 E_bond   =         0.1588 E_angle  =         4.4335 
E_dihed  =         1.6494 E_impro  =         0.0000 E_vdwl   =       820.9086 
E_coul   =     14654.3860 E_long   =    -19497.5328 Press    =       728.5157 
Volume   =     11040.8443 
SHAKE stats (type/ave/delta) on step 35000
  2 1.09005 8.8521e-07
  4 0.945048 0
  5 1.00005 5.4682e-06
  6 109.47 0.000558891
---------------- Step    35000 ----- CPU =     93.6295 (sec) ----------------
TotEng   =     -3292.1795 KinEng   =       693.3357 Temp     =       320.0914 
PotEng   =     -3985.5152 E_bond   =         0.1872 E_angle  =         4.6373 
E_dihed  =         0.0670 E_impro  =         0.0000 E_vdwl   =       739.5428 
E_coul   =     14767.9353 E_long   =    -19497.8848 Press    =      -469.2414 
Volume   =     11125.6736 
SHAKE stats (type/ave/delta) on step 40000
  2 1.09007 6.38585e-07
  4 0.94506 0
  5 1.00006 6.28423e-06
  6 109.47 0.000469014
---------------- Step    40000 ----- CPU =    107.5107 (sec) ----------------
TotEng   =     -3333.5751 KinEng   =       644.1157 Temp     =       297.3681 
PotEng   =     -3977.6908 E_bond   =         0.7299 E_angle  =         5.1769 
E_dihed  =         0.2558 E_impro  =         0.0000 E_vdwl   =       770.7976 
E_coul   =     14746.6223 E_long   =    -19501.2732 Press    =        58.3831 
Volume   =     10951.3863 
SHAKE stats (type/ave/delta) on step 45000
  2 1.08999 1.47593e-06
  4 0.94499 0
  5 0.99999 5.15177e-06
  6 109.47 0.000449749
---------------- Step    45000 ----- CPU =    121.9742 (sec) ----------------
TotEng   =     -3426.5707 KinEng   =       630.4904 Temp     =       291.0777 
PotEng   =     -4057.0611 E_bond   =         0.1839 E_angle  =         2.7127 
E_dihed  =         0.7362 E_impro  =         0.0000 E_vdwl   =       808.0948 
E_coul   =     14630.2890 E_long   =    -19499.0777 Press    =       316.6829 
Volume   =     11017.8049 
SHAKE stats (type/ave/delta) on step 50000
  2 1.08982 2.21709e-06
  4 0.944841 0
  5 0.999833 7.99183e-06
  6 109.47 0.000742904
---------------- Step    50000 ----- CPU =    135.8646 (sec) ----------------
TotEng   =     -3327.1625 KinEng   =       666.7714 Temp     =       307.8275 
PotEng   =     -3993.9338 E_bond   =         0.3801 E_angle  =         4.6986 
E_dihed  =         0.8560 E_impro  =         0.0000 E_vdwl   =       767.0451 
E_coul   =     14732.0769 E_long   =    -19498.9906 Press    =       105.0517 
Volume   =     10906.6532 
SHAKE stats (type/ave/delta) on step 55000
  2 1.09 1.5894e-06
  4 0.945001 0
  5 1 6.026e-06
  6 109.47 0.00053372
---------------- Step    55000 ----- CPU =    150.3308 (sec) ----------------
TotEng   =     -3366.5512 KinEng   =       672.5070 Temp     =       310.4754 
PotEng   =     -4039.0581 E_bond   =         1.4690 E_angle  =         7.2690 
E_dihed  =         0.1292 E_impro  =         0.0000 E_vdwl   =       762.0804 
E_coul   =     14686.9558 E_long   =    -19496.9616 Press    =      -690.6770 
Volume   =     11017.0534 
SHAKE stats (type/ave/delta) on step 60000
  2 1.09008 2.94303e-07
  4 0.945074 0
  5 1.00008 3.45841e-06
  6 109.47 0.000352397
---------------- Step    60000 ----- CPU =    164.3983 (sec) ----------------
TotEng   =     -3336.5344 KinEng   =       664.6977 Temp     =       306.8701 
PotEng   =     -4001.2321 E_bond   =         0.0905 E_angle  =         2.9751 
E_dihed  =         0.0830 E_impro  =         0.0000 E_vdwl   =       734.0660 
E_coul   =     14759.4750 E_long   =    -19497.9217 Press    =      -499.6347 
Volume   =     10967.7490 
SHAKE stats (type/ave/delta) on step 65000
  2 1.09003 1.52234e-06
  4 0.945024 0
  5 1.00003 6.28584e-06
  6 109.47 0.000576677
---------------- Step    65000 ----- CPU =    178.4436 (sec) ----------------
TotEng   =     -3342.1340 KinEng   =       656.4271 Temp     =       303.0518 
PotEng   =     -3998.5610 E_bond   =         0.7119 E_angle  =         2.2068 
E_dihed  =         1.4802 E_impro  =         0.0000 E_vdwl   =       770.6418 
E_coul   =     14722.0240 E_long   =    -19495.6256 Press    =        96.5657 
Volume   =     10980.5689 
SHAKE stats (type/ave/delta) on step 70000
  2 1.08998 9.50839e-07
  4 0.944987 0
  5 0.999986 5.58595e-06
  6 109.47 0.000617149
---------------- Step    70000 ----- CPU =    192.9644 (sec) ----------------
TotEng   =     -3354.5588 KinEng   =       641.7560 Temp     =       296.2787 
PotEng   =     -3996.3148 E_bond   =         0.2157 E_angle  =         3.0548 
E_dihed  =         0.1191 E_impro  =         0.0000 E_vdwl   =       817.6666 
E_coul   =     14679.3998 E_long   =    -19496.7708 Press    =      1133.2904 
Volume   =     10919.6117 
SHAKE stats (type/ave/delta) on step 75000
  2 1.08998 1.98139e-06
  4 0.944983 0
  5 0.999983 7.3017e-06
  6 109.47 0.000489625
---------------- Step    75000 ----- CPU =    207.2100 (sec) ----------------
TotEng   =     -3361.0940 KinEng   =       658.4686 Temp     =       303.9944 
PotEng   =     -4019.5627 E_bond   =         0.0133 E_angle  =         3.7645 
E_dihed  =         0.1078 E_impro  =         0.0000 E_vdwl   =       838.7665 
E_coul   =     14635.6870 E_long   =    -19497.9017 Press    =      1238.5496 
Volume   =     10935.6470 
SHAKE stats (type/ave/delta) on step 80000
  2 1.08991 9.925e-07
  4 0.944924 0
  5 0.999921 7.31524e-06
  6 109.47 0.000515899
---------------- Step    80000 ----- CPU =    221.0672 (sec) ----------------
TotEng   =     -3342.5785 KinEng   =       623.4659 Temp     =       287.8347 
PotEng   =     -3966.0445 E_bond   =         0.4162 E_angle  =         4.6185 
E_dihed  =         0.0982 E_impro  =         0.0000 E_vdwl   =       798.2344 
E_coul   =     14729.3936 E_long   =    -19498.8054 Press    =      1228.6149 
Volume   =     10831.5769 
SHAKE stats (type/ave/delta) on step 85000
  2 1.09004 1.92653e-06
  4 0.94503 0
  5 1.00003 1.17804e-05
  6 109.47 0.000752483
---------------- Step    85000 ----- CPU =    234.4226 (sec) ----------------
TotEng   =     -3378.4720 KinEng   =       631.0291 Temp     =       291.3264 
PotEng   =     -4009.5011 E_bond   =         1.1794 E_angle  =         1.5416 
E_dihed  =         0.0407 E_impro  =         0.0000 E_vdwl   =       716.8094 
E_coul   =     14769.1077 E_long   =    -19498.1800 Press    =      -937.7491 
Volume   =     10888.7938 
SHAKE stats (type/ave/delta) on step 90000
  2 1.09004 6.01351e-07
  4 0.945036 0
  5 1.00004 8.38179e-06
  6 109.47 0.000856271
---------------- Step    90000 ----- CPU =    247.9271 (sec) ----------------
TotEng   =     -3315.6885 KinEng   =       682.6126 Temp     =       315.1409 
PotEng   =     -3998.3011 E_bond   =         0.4969 E_angle  =         2.3041 
E_dihed  =         1.0959 E_impro  =         0.0000 E_vdwl   =       804.4527 
E_coul   =     14690.8217 E_long   =    -19497.4725 Press    =      1033.5943 
Volume   =     10936.4632 
SHAKE stats (type/ave/delta) on step 95000
  2 1.08989 8.03221e-07
  4 0.944906 1.55431e-15
  5 0.9999 9.65155e-06
  6 109.47 0.00104934
---------------- Step    95000 ----- CPU =    262.0167 (sec) ----------------
TotEng   =     -3357.8352 KinEng   =       647.2133 Temp     =       298.7981 
PotEng   =     -4005.0485 E_bond   =         0.0938 E_angle  =         7.3818 
E_dihed  =         1.9630 E_impro  =         0.0000 E_vdwl   =       800.6620 
E_coul   =     14684.3045 E_long   =    -19499.4535 Press    =       333.0520 
Volume   =     11146.5897 
SHAKE stats (type/ave/delta) on step 100000
  2 1.09002 5.3945e-07
  4 0.945013 0
  5 1.00002 6.30473e-06
  6 109.47 0.000439023
---------------- Step   100000 ----- CPU =    275.7536 (sec) ----------------
TotEng   =     -3338.4767 KinEng   =       622.9649 Temp     =       287.6034 
PotEng   =     -3961.4416 E_bond   =         0.9377 E_angle  =         4.1571 
E_dihed  =         1.6484 E_impro  =         0.0000 E_vdwl   =       741.8082 
E_coul   =     14788.2146 E_long   =    -19498.2076 Press    =       -24.7855 
Volume   =     10762.3625 
SHAKE stats (type/ave/delta) on step 105000
  2 1.08992 1.09704e-06
  4 0.944934 0
  5 0.999932 5.78828e-06
  6 109.47 0.000488035
---------------- Step   105000 ----- CPU =    289.6848 (sec) ----------------
TotEng   =     -3395.0480 KinEng   =       659.8299 Temp     =       304.6228 
PotEng   =     -4054.8779 E_bond   =         0.6743 E_angle  =         2.8658 
E_dihed  =         0.7444 E_impro  =         0.0000 E_vdwl   =       804.5951 
E_coul   =     14633.0163 E_long   =    -19496.7738 Press    =       557.9884 
Volume   =     10868.1801 
SHAKE stats (type/ave/delta) on step 110000
  2 1.09003 9.32877e-07
  4 0.945024 0
  5 1.00003 6.9932e-06
  6 109.47 0.000516342
---------------- Step   110000 ----- CPU =    303.4175 (sec) ----------------
TotEng   =     -3327.4249 KinEng   =       666.3611 Temp     =       307.6381 
PotEng   =     -3993.7860 E_bond   =         0.8140 E_angle  =         4.9618 
E_dihed  =         1.5534 E_impro  =         0.0000 E_vdwl   =       775.6248 
E_coul   =     14722.2142 E_long   =    -19498.9542 Press    =        46.1032 
Volume   =     11023.8973 
SHAKE stats (type/ave/delta) on step 115000
  2 1.08996 4.47394e-06
  4 0.944961 0
  5 0.99996 6.51693e-06
  6 109.47 0.000650931
---------------- Step   115000 ----- CPU =    317.2999 (sec) ----------------
TotEng   =     -3320.8066 KinEng   =       641.0855 Temp     =       295.9691 
PotEng   =     -3961.8921 E_bond   =         0.2881 E_angle  =         5.0406 
E_dihed  =         0.5436 E_impro  =         0.0000 E_vdwl   =       766.7234 
E_coul   =     14762.3459 E_long   =    -19496.8336 Press    =       136.9542 
Volume   =     10913.7923 
SHAKE stats (type/ave/delta) on step 120000
  2 1.09003 3.34388e-06
  4 0.945029 0
  5 1.00003 7.42193e-06
  6 109.47 0.000762616
---------------- Step   120000 ----- CPU =    331.0633 (sec) ----------------
TotEng   =     -3332.7698 KinEng   =       654.6911 Temp     =       302.2504 
PotEng   =     -3987.4609 E_bond   =         1.3374 E_angle  =         5.5717 
E_dihed  =         0.4357 E_impro  =         0.0000 E_vdwl   =       719.7552 
E_coul   =     14783.0984 E_long   =    -19497.6593 Press    =      -616.6898 
Volume   =     10963.7841 
SHAKE stats (type/ave/delta) on step 125000
  2 1.08992 1.68559e-06
  4 0.94493 0
  5 0.999927 8.12211e-06
  6 109.47 0.00061355
---------------- Step   125000 ----- CPU =    345.1209 (sec) ----------------
TotEng   =     -3362.2696 KinEng   =       679.5365 Temp     =       313.7207 
PotEng   =     -4041.8061 E_bond   =         2.2936 E_angle  =         3.8306 
E_dihed  =         1.3132 E_impro  =         0.0000 E_vdwl   =       772.1155 
E_coul   =     14675.5025 E_long   =    -19496.8614 Press    =       -41.5968 
Volume   =     10842.2346 
SHAKE stats (type/ave/delta) on step 130000
  2 1.08994 1.47138e-06
  4 0.944943 0
  5 0.999942 1.12253e-05
  6 109.47 0.00112825
---------------- Step   130000 ----- CPU =    358.0115 (sec) ----------------
TotEng   =     -3357.7249 KinEng   =       640.7750 Temp     =       295.8258 
PotEng   =     -3998.4999 E_bond   =         4.0643 E_angle  =         5.2223 
E_dihed  =         0.9453 E_impro  =         0.0000 E_vdwl   =       766.3129 
E_coul   =     14722.2692 E_long   =    -19497.3140 Press    =      -168.0830 
Volume   =     11160.4801 
SHAKE stats (type/ave/delta) on step 135000
  2 1.09003 8.08904e-07
  4 0.945025 0
  5 1.00003 5.86552e-06
  6 109.47 0.000423055
---------------- Step   135000 ----- CPU =    370.6913 (sec) ----------------
TotEng   =     -3333.3323 KinEng   =       669.2407 Temp     =       308.9675 
PotEng   =     -4002.5730 E_bond   =         1.7492 E_angle  =         2.5292 
E_dihed  =         0.4018 E_impro  =         0.0000 E_vdwl   =       758.2813 
E_coul   =     14736.2119 E_long   =    -19501.7464 Press    =      -476.8708 
Volume   =     10966.9138 
SHAKE stats (type/ave/delta) on step 140000
  2 1.08993 7.64828e-08
  4 0.94494 0
  5 0.999938 3.9655e-06
  6 109.47 0.000353647
---------------- Step   140000 ----- CPU =    383.4580 (sec) ----------------
TotEng   =     -3320.1045 KinEng   =       666.4838 Temp     =       307.6947 
PotEng   =     -3986.5883 E_bond   =         0.9076 E_angle  =         2.8447 
E_dihed  =         2.2970 E_impro  =         0.0000 E_vdwl   =       753.6708 
E_coul   =     14751.8119 E_long   =    -19498.1202 Press    =      -232.2640 
Volume   =     10942.3845 
SHAKE stats (type/ave/delta) on step 145000
  2 1.09006 1.20087e-06
  4 0.945056 0
  5 1.00006 4.7567e-06
  6 109.47 0.000626174
---------------- Step   145000 ----- CPU =    396.2093 (sec) ----------------
TotEng   =     -3341.5280 KinEng   =       644.1882 Temp     =       297.4015 
PotEng   =     -3985.7162 E_bond   =         0.0863 E_angle  =         3.9796 
E_dihed  =         0.8163 E_impro  =         0.0000 E_vdwl   =       797.5583 
E_coul   =     14708.6178 E_long   =    -19496.7744 Press    =       858.4709 
Volume   =     10907.7673 
SHAKE stats (type/ave/delta) on step 150000
  2 1.09002 4.94757e-07
  4 0.945013 0
  5 1.00001 4.00278e-06
  6 109.47 0.000362253
---------------- Step   150000 ----- CPU =    409.2365 (sec) ----------------
TotEng   =     -3354.7916 KinEng   =       637.6636 Temp     =       294.3893 
PotEng   =     -3992.4552 E_bond   =         1.0895 E_angle  =         2.9387 
E_dihed  =         1.2506 E_impro  =         0.0000 E_vdwl   =       804.5987 
E_coul   =     14696.9305 E_long   =    -19499.2630 Press    =       598.4703 
Volume   =     10910.7054 
SHAKE stats (type/ave/delta) on step 155000
  2 1.09007 1.05361e-06
  4 0.945057 0
  5 1.00006 8.52501e-06
  6 109.47 0.000587769
---------------- Step   155000 ----- CPU =    422.7266 (sec) ----------------
TotEng   =     -3313.9642 KinEng   =       650.9492 Temp     =       300.5229 
PotEng   =     -3964.9135 E_bond   =         0.7356 E_angle  =         3.3114 
E_dihed  =         1.0811 E_impro  =         0.0000 E_vdwl   =       803.4484 
E_coul   =     14725.8819 E_long   =    -19499.3718 Press    =       777.9362 
Volume   =     11067.7721 
SHAKE stats (type/ave/delta) on step 160000
  2 1.08991 2.61336e-06
  4 0.944924 0
  5 0.999919 9.25132e-06
  6 109.47 0.000819042
---------------- Step   160000 ----- CPU =    436.3137 (sec) ----------------
TotEng   =     -3373.0933 KinEng   =       637.1314 Temp     =       294.1436 
PotEng   =     -4010.2246 E_bond   =         0.2993 E_angle  =         4.9341 
E_dihed  =         0.2789 E_impro  =         0.0000 E_vdwl   =       755.7042 
E_coul   =     14726.9087 E_long   =    -19498.3498 Press    =      -170.3901 
Volume   =     10808.4977 
SHAKE stats (type/ave/delta) on step 165000
  2 1.08997 1.31954e-06
  4 0.944977 0
  5 0.999976 6.10945e-06
  6 109.47 0.000471604
---------------- Step   165000 ----- CPU =    450.3679 (sec) ----------------
TotEng   =     -3372.7938 KinEng   =       665.5392 Temp     =       307.2586 
PotEng   =     -4038.3329 E_bond   =         0.2453 E_angle  =         4.9280 
E_dihed  =         0.4568 E_impro  =         0.0000 E_vdwl   =       796.8638 
E_coul   =     14657.6995 E_long   =    -19498.5265 Press    =       331.2615 
Volume   =     10947.5546 
SHAKE stats (type/ave/delta) on step 170000
  2 1.08992 5.63858e-07
  4 0.94493 0
  5 0.999927 4.29324e-06
  6 109.47 0.000386218
---------------- Step   170000 ----- CPU =    464.1884 (sec) ----------------
TotEng   =     -3322.6862 KinEng   =       657.3194 Temp     =       303.4638 
PotEng   =     -3980.0056 E_bond   =         0.2960 E_angle  =         5.5008 
E_dihed  =         0.9401 E_impro  =         0.0000 E_vdwl   =       775.1289 
E_coul   =     14735.7335 E_long   =    -19497.6050 Press    =       299.1502 
Volume   =     11032.2654 
SHAKE stats (type/ave/delta) on step 175000
  2 1.08995 2.79828e-06
  4 0.944955 0
  5 0.999954 8.4127e-06
  6 109.47 0.000668037
---------------- Step   175000 ----- CPU =    478.3735 (sec) ----------------
TotEng   =     -3431.7953 KinEng   =       598.8071 Temp     =       276.4505 
PotEng   =     -4030.6024 E_bond   =         0.0789 E_angle  =         5.8886 
E_dihed  =         0.2509 E_impro  =         0.0000 E_vdwl   =       718.7957 
E_coul   =     14745.5869 E_long   =    -19501.2034 Press    =     -1442.3098 
Volume   =     11078.7705 
SHAKE stats (type/ave/delta) on step 180000
  2 1.09001 2.11187e-06
  4 0.945013 0
  5 1.00001 5.36503e-06
  6 109.47 0.000652166
---------------- Step   180000 ----- CPU =    492.4736 (sec) ----------------
TotEng   =     -3337.0185 KinEng   =       641.2845 Temp     =       296.0610 
PotEng   =     -3978.3030 E_bond   =         0.1891 E_angle  =         6.3714 
E_dihed  =         0.4017 E_impro  =         0.0000 E_vdwl   =       767.6281 
E_coul   =     14747.1234 E_long   =    -19500.0166 Press    =       260.2233 
Volume   =     10893.7593 
SHAKE stats (type/ave/delta) on step 185000
  2 1.08987 5.93579e-06
  4 0.944885 0
  5 0.99988 7.71735e-06
  6 109.47 0.000669024
---------------- Step   185000 ----- CPU =    506.7949 (sec) ----------------
TotEng   =     -3340.6525 KinEng   =       660.4875 Temp     =       304.9264 
PotEng   =     -4001.1400 E_bond   =         2.6254 E_angle  =         5.2675 
E_dihed  =         0.6008 E_impro  =         0.0000 E_vdwl   =       727.9246 
E_coul   =     14760.2031 E_long   =    -19497.7615 Press    =      -536.8310 
Volume   =     10727.7027 
SHAKE stats (type/ave/delta) on step 190000
  2 1.09008 9.11942e-07
  4 0.945068 0
  5 1.00007 4.27181e-06
  6 109.47 0.000384993
---------------- Step   190000 ----- CPU =    521.1596 (sec) ----------------
TotEng   =     -3336.7254 KinEng   =       662.8109 Temp     =       305.9991 
PotEng   =     -3999.5363 E_bond   =         0.1377 E_angle  =         4.8665 
E_dihed  =         1.4478 E_impro  =         0.0000 E_vdwl   =       761.6852 
E_coul   =     14730.0996 E_long   =    -19497.7730 Press    =       -72.8392 
Volume   =     11028.9925 
SHAKE stats (type/ave/delta) on step 195000
  2 1.08999 8.46785e-06
  4 0.944989 0
  5 0.99999 1.38713e-05
  6 109.47 0.00118479
---------------- Step   195000 ----- CPU =    535.6539 (sec) ----------------
TotEng   =     -3364.4283 KinEng   =       673.4604 Temp     =       310.9156 
PotEng   =     -4037.8887 E_bond   =         0.0385 E_angle  =         3.8256 
E_dihed  =         0.4663 E_impro  =         0.0000 E_vdwl   =       771.7496 
E_coul   =     14684.5178 E_long   =    -19498.4865 Press    =      -288.6247 
Volume   =     11043.3348 
SHAKE stats (type/ave/delta) on step 200000
  2 1.08992 1.84682e-06
  4 0.944936 0
  5 0.999931 4.93627e-06
  6 109.47 0.000512558
---------------- Step   200000 ----- CPU =    549.8514 (sec) ----------------
TotEng   =     -3355.9445 KinEng   =       650.9700 Temp     =       300.5325 
PotEng   =     -4006.9145 E_bond   =         0.0333 E_angle  =         3.5820 
E_dihed  =         0.1160 E_impro  =         0.0000 E_vdwl   =       763.1040 
E_coul   =     14723.4893 E_long   =    -19497.2390 Press    =      -232.2273 
Volume   =     11020.8213 
SHAKE stats (type/ave/delta) on step 205000
  2 1.08991 8.34329e-07
  4 0.94492 0
  5 0.999917 8.89785e-06
  6 109.47 0.000799706
---------------- Step   205000 ----- CPU =    564.2873 (sec) ----------------
TotEng   =     -3378.9270 KinEng   =       654.7352 Temp     =       302.2708 
PotEng   =     -4033.6622 E_bond   =         1.1065 E_angle  =         1.8281 
E_dihed  =         0.4867 E_impro  =         0.0000 E_vdwl   =       734.6233 
E_coul   =     14728.5322 E_long   =    -19500.2389 Press    =     -1104.5834 
Volume   =     11020.0824 
SHAKE stats (type/ave/delta) on step 210000
  2 1.09002 1.27486e-06
  4 0.945015 0
  5 1.00002 7.80062e-06
  6 109.47 0.000568926
---------------- Step   210000 ----- CPU =    579.1416 (sec) ----------------
TotEng   =     -3301.9535 KinEng   =       680.9050 Temp     =       314.3525 
PotEng   =     -3982.8585 E_bond   =         0.8852 E_angle  =         5.4814 
E_dihed  =         0.3300 E_impro  =         0.0000 E_vdwl   =       748.7821 
E_coul   =     14761.3515 E_long   =    -19499.6886 Press    =      -242.3117 
Volume   =     11098.6703 
SHAKE stats (type/ave/delta) on step 215000
  2 1.08998 2.22379e-07
  4 0.944986 0
  5 0.999986 4.05784e-06
  6 109.47 0.000423573
---------------- Step   215000 ----- CPU =    593.7520 (sec) ----------------
TotEng   =     -3384.9351 KinEng   =       629.0572 Temp     =       290.4160 
PotEng   =     -4013.9923 E_bond   =         0.1494 E_angle  =         6.7888 
E_dihed  =         0.8971 E_impro  =         0.0000 E_vdwl   =       762.3854 
E_coul   =     14714.1054 E_long   =    -19498.3184 Press    =        89.7873 
Volume   =     10670.1703 
SHAKE stats (type/ave/delta) on step 220000
  2 1.09006 5.52096e-07
  4 0.945054 0
  5 1.00006 3.71227e-06
  6 109.47 0.00036027
---------------- Step   220000 ----- CPU =    607.7369 (sec) ----------------
TotEng   =     -3341.4720 KinEng   =       639.2405 Temp     =       295.1174 
PotEng   =     -3980.7125 E_bond   =         0.1111 E_angle  =         3.2089 
E_dihed  =         0.2721 E_impro  =         0.0000 E_vdwl   =       780.0451 
E_coul   =     14731.6165 E_long   =    -19495.9662 Press    =       579.4090 
Volume   =     10853.4281 
SHAKE stats (type/ave/delta) on step 225000
  2 1.08991 9.00144e-07
  4 0.944927 0
  5 0.999923 5.00317e-06
  6 109.47 0.000473086
---------------- Step   225000 ----- CPU =    621.8578 (sec) ----------------
TotEng   =     -3352.8807 KinEng   =       654.7331 Temp     =       302.2698 
PotEng   =     -4007.6139 E_bond   =         0.9369 E_angle  =         4.0095 
E_dihed  =         0.7088 E_impro  =         0.0000 E_vdwl   =       816.0173 
E_coul   =     14667.7539 E_long   =    -19497.0402 Press    =       993.2651 
Volume   =     10725.4574 
SHAKE stats (type/ave/delta) on step 230000
  2 1.09008 2.49205e-06
  4 0.945065 3.33067e-16
  5 1.00007 9.37473e-06
  6 109.47 0.000898549
---------------- Step   230000 ----- CPU =    635.7423 (sec) ----------------
TotEng   =     -3375.0482 KinEng   =       658.6061 Temp     =       304.0578 
PotEng   =     -4033.6543 E_bond   =         1.1491 E_angle  =         4.6543 
E_dihed  =         0.2055 E_impro  =         0.0000 E_vdwl   =       799.2434 
E_coul   =     14659.1878 E_long   =    -19498.0945 Press    =       212.4046 
Volume   =     11012.6288 
SHAKE stats (type/ave/delta) on step 235000
  2 1.09005 8.68579e-07
  4 0.945045 0
  5 1.00005 6.03389e-06
  6 109.47 0.000546268
---------------- Step   235000 ----- CPU =    649.8212 (sec) ----------------
TotEng   =     -3332.0169 KinEng   =       628.2954 Temp     =       290.0643 
PotEng   =     -3960.3123 E_bond   =         0.2572 E_angle  =         2.6911 
E_dihed  =         0.7486 E_impro  =         0.0000 E_vdwl   =       799.3672 
E_coul   =     14732.7220 E_long   =    -19496.0984 Press    =       820.0346 
Volume   =     10972.1810 
SHAKE stats (type/ave/delta) on step 240000
  2 1.08999 8.31832e-07
  4 0.944993 1.11022e-15
  5 0.999994 4.56658e-06
  6 109.47 0.000398519
---------------- Step   240000 ----- CPU =    663.8261 (sec) ----------------
TotEng   =     -3295.1224 KinEng   =       657.3202 Temp     =       303.4642 
PotEng   =     -3952.4426 E_bond   =         0.3750 E_angle  =         2.7276 
E_dihed  =         0.1283 E_impro  =         0.0000 E_vdwl   =       746.9137 
E_coul   =     14796.9073 E_long   =    -19499.4945 Press    =      -162.4863 
Volume   =     11037.6076 
SHAKE stats (type/ave/delta) on step 245000
  2 1.08996 3.5752e-07
  4 0.944966 0
  5 0.999965 6.15919e-06
  6 109.47 0.000457418
---------------- Step   245000 ----- CPU =    677.5481 (sec) ----------------
TotEng   =     -3412.9390 KinEng   =       618.7308 Temp     =       285.6486 
PotEng   =     -4031.6698 E_bond   =         0.3296 E_angle  =         3.1573 
E_dihed  =         0.0477 E_impro  =         0.0000 E_vdwl   =       813.9653 
E_coul   =     14650.5270 E_long   =    -19499.6967 Press    =       668.5592 
Volume   =     10892.8734 
SHAKE stats (type/ave/delta) on step 250000
  2 1.09002 9.87823e-07
  4 0.945018 8.88178e-16
  5 1.00002 8.24266e-06
  6 109.47 0.00063259
---------------- Step   250000 ----- CPU =    691.4294 (sec) ----------------
TotEng   =     -3337.6525 KinEng   =       659.8066 Temp     =       304.6121 
PotEng   =     -3997.4591 E_bond   =         0.5628 E_angle  =         2.5712 
E_dihed  =         0.9076 E_impro  =         0.0000 E_vdwl   =       754.7954 
E_coul   =     14741.9275 E_long   =    -19498.2237 Press    =      -490.7824 
Volume   =     11037.7422 
SHAKE stats (type/ave/delta) on step 255000
  2 1.09003 1.18194e-06
  4 0.945032 0
  5 1.00003 8.28194e-06
  6 109.47 0.00111304
---------------- Step   255000 ----- CPU =    704.1970 (sec) ----------------
TotEng   =     -3315.8905 KinEng   =       666.8742 Temp     =       307.8750 
PotEng   =     -3982.7648 E_bond   =         0.9153 E_angle  =         2.1200 
E_dihed  =         2.4175 E_impro  =         0.0000 E_vdwl   =       769.4332 
E_coul   =     14738.9329 E_long   =    -19496.5837 Press    =         1.5813 
Volume   =     11257.7977 
SHAKE stats (type/ave/delta) on step 260000
  2 1.08994 1.23681e-06
  4 0.944952 0
  5 0.99995 6.56935e-06
  6 109.47 0.000522056
---------------- Step   260000 ----- CPU =    717.2810 (sec) ----------------
TotEng   =     -3307.2095 KinEng   =       675.6017 Temp     =       311.9042 
PotEng   =     -3982.8111 E_bond   =         0.5429 E_angle  =         2.2808 
E_dihed  =         2.1187 E_impro  =         0.0000 E_vdwl   =       766.9544 
E_coul   =     14743.9585 E_long   =    -19498.6664 Press    =       270.2337 
Volume   =     11001.8488 
SHAKE stats (type/ave/delta) on step 265000
  2 1.09 3.79188e-07
  4 0.945004 0
  5 1 4.89491e-06
  6 109.47 0.000385773
---------------- Step   265000 ----- CPU =    731.0205 (sec) ----------------
TotEng   =     -3327.3521 KinEng   =       653.9081 Temp     =       301.8889 
PotEng   =     -3981.2601 E_bond   =         1.0663 E_angle  =         4.7225 
E_dihed  =         0.6856 E_impro  =         0.0000 E_vdwl   =       746.2083 
E_coul   =     14764.9803 E_long   =    -19498.9232 Press    =      -796.2614 
Volume   =     11227.3646 
SHAKE stats (type/ave/delta) on step 270000
  2 1.08992 1.56376e-06
  4 0.944934 0
  5 0.999931 6.40816e-06
  6 109.47 0.000699359
---------------- Step   270000 ----- CPU =    744.8607 (sec) ----------------
TotEng   =     -3339.4041 KinEng   =       636.4485 Temp     =       293.8284 
PotEng   =     -3975.8526 E_bond   =         1.1211 E_angle  =         3.1957 
E_dihed  =         0.1301 E_impro  =         0.0000 E_vdwl   =       769.8692 
E_coul   =     14746.8240 E_long   =    -19496.9926 Press    =       192.3569 
Volume   =     10929.4873 
SHAKE stats (type/ave/delta) on step 275000
  2 1.08998 2.5065e-06
  4 0.944979 0
  5 0.999981 1.07719e-05
  6 109.47 0.000806835
---------------- Step   275000 ----- CPU =    758.5913 (sec) ----------------
TotEng   =     -3361.4530 KinEng   =       648.3095 Temp     =       299.3042 
PotEng   =     -4009.7625 E_bond   =         0.2215 E_angle  =         3.1511 
E_dihed  =         0.2796 E_impro  =         0.0000 E_vdwl   =       777.9778 
E_coul   =     14706.4407 E_long   =    -19497.8333 Press    =       119.6581 
Volume   =     10912.5428 
SHAKE stats (type/ave/delta) on step 280000
  2 1.08998 2.66936e-06
  4 0.944979 0
  5 0.999979 5.04323e-06
  6 109.47 0.00045113
---------------- Step   280000 ----- CPU =    773.0717 (sec) ----------------
TotEng   =     -3394.8602 KinEng   =       662.8590 Temp     =       306.0213 
PotEng   =     -4057.7192 E_bond   =         0.3898 E_angle  =         5.0463 
E_dihed  =         0.2983 E_impro  =         0.0000 E_vdwl   =       758.7508 
E_coul   =     14678.3376 E_long   =    -19500.5419 Press    =      -459.3133 
Volume   =     10822.4379 
SHAKE stats (type/ave/delta) on step 285000
  2 1.08996 3.26386e-07
  4 0.944964 0
  5 0.999962 5.06884e-06
  6 109.47 0.000601825
---------------- Step   285000 ----- CPU =    787.3315 (sec) ----------------
TotEng   =     -3319.5413 KinEng   =       646.5348 Temp     =       298.4849 
PotEng   =     -3966.0760 E_bond   =         1.5913 E_angle  =         4.5502 
E_dihed  =         0.2972 E_impro  =         0.0000 E_vdwl   =       776.0245 
E_coul   =     14749.3538 E_long   =    -19497.8930 Press    =        82.7811 
Volume   =     10985.3628 
SHAKE stats (type/ave/delta) on step 290000
  2 1.08994 4.03842e-06
  4 0.94495 0
  5 0.999947 9.47638e-06
  6 109.47 0.000914073
---------------- Step   290000 ----- CPU =    802.1429 (sec) ----------------
TotEng   =     -3338.7461 KinEng   =       649.0540 Temp     =       299.6479 
PotEng   =     -3987.8001 E_bond   =         1.9110 E_angle  =         6.7445 
E_dihed  =         0.1831 E_impro  =         0.0000 E_vdwl   =       757.7918 
E_coul   =     14742.8842 E_long   =    -19497.3148 Press    =        -6.2581 
Volume   =     10985.9416 
SHAKE stats (type/ave/delta) on step 295000
  2 1.09002 1.73221e-06
  4 0.945017 0
  5 1.00002 5.20428e-06
  6 109.47 0.000526481
---------------- Step   295000 ----- CPU =    816.2765 (sec) ----------------
TotEng   =     -3311.0420 KinEng   =       659.9118 Temp     =       304.6606 
PotEng   =     -3970.9538 E_bond   =         0.0526 E_angle  =         5.5468 
E_dihed  =         0.2968 E_impro  =         0.0000 E_vdwl   =       710.9927 
E_coul   =     14810.0821 E_long   =    -19497.9249 Press    =      -873.7074 
Volume   =     10925.4451 
SHAKE stats (type/ave/delta) on step 300000
  2 1.08985 1.87483e-06
  4 0.944873 0
  5 0.999867 6.34897e-06
  6 109.47 0.000563095
---------------- Step   300000 ----- CPU =    830.9526 (sec) ----------------
TotEng   =     -3327.5040 KinEng   =       652.2679 Temp     =       301.1317 
PotEng   =     -3979.7718 E_bond   =         0.5381 E_angle  =         3.7962 
E_dihed  =         0.3264 E_impro  =         0.0000 E_vdwl   =       735.7884 
E_coul   =     14777.0947 E_long   =    -19497.3156 Press    =      -180.9675 
Volume   =     10879.5390 
SHAKE stats (type/ave/delta) on step 305000
  2 1.09 4.39434e-06
  4 0.945007 0
  5 1 9.82607e-06
  6 109.47 0.00111848
---------------- Step   305000 ----- CPU =    845.1899 (sec) ----------------
TotEng   =     -3386.4107 KinEng   =       658.4677 Temp     =       303.9939 
PotEng   =     -4044.8784 E_bond   =         0.2830 E_angle  =         3.0427 
E_dihed  =         2.1798 E_impro  =         0.0000 E_vdwl   =       769.5834 
E_coul   =     14678.8173 E_long   =    -19498.7845 Press    =       303.4388 
Volume   =     10643.8837 
SHAKE stats (type/ave/delta) on step 310000
  2 1.09016 1.44858e-06
  4 0.945142 1.66533e-15
  5 1.00015 8.27241e-06
  6 109.47 0.000728989
---------------- Step   310000 ----- CPU =    859.3081 (sec) ----------------
TotEng   =     -3331.7304 KinEng   =       646.7491 Temp     =       298.5838 
PotEng   =     -3978.4795 E_bond   =         0.9155 E_angle  =         2.1207 
E_dihed  =         0.5742 E_impro  =         0.0000 E_vdwl   =       763.0783 
E_coul   =     14751.6585 E_long   =    -19496.8267 Press    =       -98.3350 
Volume   =     11047.2755 
SHAKE stats (type/ave/delta) on step 315000
  2 1.09004 6.97298e-07
  4 0.945037 0
  5 1.00004 6.97747e-06
  6 109.47 0.000645484
---------------- Step   315000 ----- CPU =    873.5810 (sec) ----------------
TotEng   =     -3353.5796 KinEng   =       655.5185 Temp     =       302.6324 
PotEng   =     -4009.0981 E_bond   =         0.0049 E_angle  =         1.9657 
E_dihed  =         0.7357 E_impro  =         0.0000 E_vdwl   =       754.3006 
E_coul   =     14731.0364 E_long   =    -19497.1414 Press    =      -281.4388 
Volume   =     10838.2747 
SHAKE stats (type/ave/delta) on step 320000
  2 1.08998 6.63297e-06
  4 0.94498 0
  5 0.99998 8.92287e-06
  6 109.47 0.00132244
---------------- Step   320000 ----- CPU =    887.7280 (sec) ----------------
TotEng   =     -3315.7570 KinEng   =       666.2551 Temp     =       307.5892 
PotEng   =     -3982.0121 E_bond   =         0.5396 E_angle  =         2.8265 
E_dihed  =         1.3528 E_impro  =         0.0000 E_vdwl   =       779.9970 
E_coul   =     14731.8014 E_long   =    -19498.5295 Press    =       314.1060 
Volume   =     11019.0299 
SHAKE stats (type/ave/delta) on step 325000
  2 1.08991 7.35579e-07
  4 0.944923 0
  5 0.99992 5.19407e-06
  6 109.47 0.000507408
---------------- Step   325000 ----- CPU =    902.1407 (sec) ----------------
TotEng   =     -3314.4521 KinEng   =       654.8831 Temp     =       302.3390 
PotEng   =     -3969.3352 E_bond   =         0.7280 E_angle  =         4.3253 
E_dihed  =         0.5254 E_impro  =         0.0000 E_vdwl   =       701.4232 
E_coul   =     14818.6849 E_long   =    -19495.0219 Press    =     -1099.9284 
Volume   =     10897.1409 
SHAKE stats (type/ave/delta) on step 330000
  2 1.08984 7.55693e-07
  4 0.944858 0
  5 0.999851 4.16325e-06
  6 109.47 0.000412525
---------------- Step   330000 ----- CPU =    916.4590 (sec) ----------------
TotEng   =     -3281.6364 KinEng   =       683.0046 Temp     =       315.3219 
PotEng   =     -3964.6410 E_bond   =         0.1039 E_angle  =         2.5947 
E_dihed  =         0.6003 E_impro  =         0.0000 E_vdwl   =       716.6656 
E_coul   =     14814.1721 E_long   =    -19498.7776 Press    =      -819.5045 
Volume   =     11148.2174 
SHAKE stats (type/ave/delta) on step 335000
  2 1.08996 4.99368e-07
  4 0.944966 0
  5 0.999965 3.61893e-06
  6 109.47 0.000394131
---------------- Step   335000 ----- CPU =    930.8842 (sec) ----------------
TotEng   =     -3313.3662 KinEng   =       687.2870 Temp     =       317.2989 
PotEng   =     -4000.6532 E_bond   =         0.4483 E_angle  =         2.9285 
E_dihed  =         0.4539 E_impro  =         0.0000 E_vdwl   =       787.1468 
E_coul   =     14704.6462 E_long   =    -19496.2769 Press    =       913.3790 
Volume   =     10760.9100 
SHAKE stats (type/ave/delta) on step 340000
  2 1.09 8.74679e-07
  4 0.945005 0
  5 1.00001 5.5037e-06
  6 109.47 0.000505558
---------------- Step   340000 ----- CPU =    945.4620 (sec) ----------------
TotEng   =     -3363.6663 KinEng   =       620.8762 Temp     =       286.6391 
PotEng   =     -3984.5424 E_bond   =         0.0059 E_angle  =         3.8142 
E_dihed  =         0.2177 E_impro  =         0.0000 E_vdwl   =       744.5736 
E_coul   =     14764.6611 E_long   =    -19497.8149 Press    =      -461.7299 
Volume   =     10996.2238 
SHAKE stats (type/ave/delta) on step 345000
  2 1.08993 4.03623e-06
  4 0.944939 0
  5 0.999936 9.71744e-06
  6 109.47 0.000814611
---------------- Step   345000 ----- CPU =    959.8132 (sec) ----------------
TotEng   =     -3423.4073 KinEng   =       629.6855 Temp     =       290.7061 
PotEng   =     -4053.0928 E_bond   =         0.0579 E_angle  =         1.6189 
E_dihed  =         0.0840 E_impro  =         0.0000 E_vdwl   =       781.4057 
E_coul   =     14663.8193 E_long   =    -19500.0785 Press    =        88.2310 
Volume   =     10750.7235 
SHAKE stats (type/ave/delta) on step 350000
  2 1.09012 2.84356e-06
  4 0.945108 1.11022e-15
  5 1.00011 6.32634e-06
  6 109.47 0.000638707
---------------- Step   350000 ----- CPU =    974.3639 (sec) ----------------
TotEng   =     -3402.9432 KinEng   =       620.1913 Temp     =       286.3229 
PotEng   =     -4023.1345 E_bond   =         0.3548 E_angle  =         4.5732 
E_dihed  =         0.2261 E_impro  =         0.0000 E_vdwl   =       724.4643 
E_coul   =     14747.2918 E_long   =    -19500.0447 Press    =     -1021.7374 
Volume   =     10899.1706 
SHAKE stats (type/ave/delta) on step 355000
  2 1.08994 2.90508e-06
  4 0.94495 0
  5 0.999947 5.78353e-06
  6 109.47 0.000687392
---------------- Step   355000 ----- CPU =    989.2478 (sec) ----------------
TotEng   =     -3351.6458 KinEng   =       655.6447 Temp     =       302.6906 
PotEng   =     -4007.2905 E_bond   =         0.5952 E_angle  =         4.2044 
E_dihed  =         0.1177 E_impro  =         0.0000 E_vdwl   =       756.0491 
E_coul   =     14729.0281 E_long   =    -19497.2849 Press    =      -114.8985 
Volume   =     10921.1561 
SHAKE stats (type/ave/delta) on step 360000
  2 1.09012 3.68885e-07
  4 0.945101 1.33227e-15
  5 1.00011 6.35899e-06
  6 109.47 0.000532414
---------------- Step   360000 ----- CPU =   1003.5464 (sec) ----------------
TotEng   =     -3333.2277 KinEng   =       640.1332 Temp     =       295.5295 
PotEng   =     -3973.3609 E_bond   =         0.8670 E_angle  =         2.5463 
E_dihed  =         2.3131 E_impro  =         0.0000 E_vdwl   =       783.5054 
E_coul   =     14734.2108 E_long   =    -19496.8036 Press    =       365.5057 
Volume   =     11024.7835 
SHAKE stats (type/ave/delta) on step 365000
  2 1.09012 5.14079e-07
  4 0.945103 0
  5 1.00011 5.98377e-06
  6 109.47 0.000481436
---------------- Step   365000 ----- CPU =   1017.8231 (sec) ----------------
TotEng   =     -3422.3173 KinEng   =       641.0815 Temp     =       295.9673 
PotEng   =     -4063.3988 E_bond   =         1.0253 E_angle  =         2.0191 
E_dihed  =         0.6519 E_impro  =         0.0000 E_vdwl   =       785.5150 
E_coul   =     14647.8907 E_long   =    -19500.5008 Press    =       143.4795 
Volume   =     10748.4125 
SHAKE stats (type/ave/delta) on step 370000
  2 1.09027 8.48918e-07
  4 0.945233 0
  5 1.00025 6.64059e-06
  6 109.47 0.000527939
---------------- Step   370000 ----- CPU =   1032.6205 (sec) ----------------
TotEng   =     -3344.0074 KinEng   =       625.9546 Temp     =       288.9837 
PotEng   =     -3969.9620 E_bond   =         0.6283 E_angle  =         2.7710 
E_dihed  =         1.7635 E_impro  =         0.0000 E_vdwl   =       740.5450 
E_coul   =     14782.1074 E_long   =    -19497.7773 Press    =      -376.4700 
Volume   =     10969.9902 
SHAKE stats (type/ave/delta) on step 375000
  2 1.09002 7.73895e-07
  4 0.945013 0
  5 1.00001 6.14498e-06
  6 109.47 0.000543545
---------------- Step   375000 ----- CPU =   1047.1587 (sec) ----------------
TotEng   =     -3320.7314 KinEng   =       660.3367 Temp     =       304.8568 
PotEng   =     -3981.0681 E_bond   =         0.3717 E_angle  =         1.8609 
E_dihed  =         0.2999 E_impro  =         0.0000 E_vdwl   =       798.5154 
E_coul   =     14714.1445 E_long   =    -19496.2605 Press    =       767.2832 
Volume   =     10975.2643 
SHAKE stats (type/ave/delta) on step 380000
  2 1.08993 1.88186e-06
  4 0.944942 0
  5 0.99994 1.16774e-05
  6 109.47 0.00117144
---------------- Step   380000 ----- CPU =   1060.6285 (sec) ----------------
TotEng   =     -3325.7570 KinEng   =       658.1083 Temp     =       303.8280 
PotEng   =     -3983.8654 E_bond   =         0.2173 E_angle  =         4.1605 
E_dihed  =         0.2480 E_impro  =         0.0000 E_vdwl   =       794.9951 
E_coul   =     14716.4275 E_long   =    -19499.9137 Press    =       707.4719 
Volume   =     10970.1720 
SHAKE stats (type/ave/delta) on step 385000
  2 1.08985 2.87157e-07
  4 0.944872 0
  5 0.999866 5.36169e-06
  6 109.47 0.000517608
---------------- Step   385000 ----- CPU =   1074.2717 (sec) ----------------
TotEng   =     -3302.9604 KinEng   =       680.2704 Temp     =       314.0596 
PotEng   =     -3983.2308 E_bond   =         0.0394 E_angle  =         3.3398 
E_dihed  =         0.0987 E_impro  =         0.0000 E_vdwl   =       818.6704 
E_coul   =     14691.2616 E_long   =    -19496.6407 Press    =      1380.4859 
Volume   =     10896.1719 
SHAKE stats (type/ave/delta) on step 390000
  2 1.09005 9.91361e-07
  4 0.945042 0
  5 1.00005 4.19025e-06
  6 109.47 0.000388046
---------------- Step   390000 ----- CPU =   1087.5521 (sec) ----------------
TotEng   =     -3412.0683 KinEng   =       637.2064 Temp     =       294.1783 
PotEng   =     -4049.2747 E_bond   =         0.8642 E_angle  =         1.6575 
E_dihed  =         0.7282 E_impro  =         0.0000 E_vdwl   =       756.1236 
E_coul   =     14687.5159 E_long   =    -19496.1640 Press    =      -711.8500 
Volume   =     10909.1830 
SHAKE stats (type/ave/delta) on step 395000
  2 1.09006 1.16499e-06
  4 0.945051 0
  5 1.00006 7.75394e-06
  6 109.47 0.000633265
---------------- Step   395000 ----- CPU =   1100.6305 (sec) ----------------
TotEng   =     -3396.4823 KinEng   =       650.3644 Temp     =       300.2529 
PotEng   =     -4046.8467 E_bond   =         0.0470 E_angle  =         2.8404 
E_dihed  =         0.2212 E_impro  =         0.0000 E_vdwl   =       785.7415 
E_coul   =     14661.0691 E_long   =    -19496.7660 Press    =        64.6639 
Volume   =     10900.2291 
SHAKE stats (type/ave/delta) on step 400000
  2 1.08995 1.25066e-06
  4 0.94496 0
  5 0.999958 7.05655e-06
  6 109.47 0.000572663
---------------- Step   400000 ----- CPU =   1113.9972 (sec) ----------------
TotEng   =     -3383.9446 KinEng   =       638.9479 Temp     =       294.9823 
PotEng   =     -4022.8925 E_bond   =         0.1550 E_angle  =         2.9152 
E_dihed  =         1.4819 E_impro  =         0.0000 E_vdwl   =       786.5792 
E_coul   =     14681.2680 E_long   =    -19495.2918 Press    =       308.7935 
Volume   =     10892.5663 
SHAKE stats (type/ave/delta) on step 405000
  2 1.09 8.68914e-07
  4 0.945001 0
  5 1 5.81097e-06
  6 109.47 0.000576894
---------------- Step   405000 ----- CPU =   1128.6612 (sec) ----------------
TotEng   =     -3339.8831 KinEng   =       638.4505 Temp     =       294.7526 
PotEng   =     -3978.3336 E_bond   =         0.1269 E_angle  =         1.7592 
E_dihed  =         0.6454 E_impro  =         0.0000 E_vdwl   =       778.9246 
E_coul   =     14738.1445 E_long   =    -19497.9343 Press    =       259.1693 
Volume   =     11040.3341 
SHAKE stats (type/ave/delta) on step 410000
  2 1.09001 1.37133e-07
  4 0.945005 0
  5 1.00001 4.0357e-06
  6 109.47 0.000368283
---------------- Step   410000 ----- CPU =   1142.8857 (sec) ----------------
TotEng   =     -3397.6997 KinEng   =       652.8489 Temp     =       301.3999 
PotEng   =     -4050.5486 E_bond   =         0.0905 E_angle  =         3.4436 
E_dihed  =         0.1097 E_impro  =         0.0000 E_vdwl   =       798.7361 
E_coul   =     14646.0204 E_long   =    -19498.9489 Press    =       443.9487 
Volume   =     10962.0710 
SHAKE stats (type/ave/delta) on step 415000
  2 1.09012 3.05168e-07
  4 0.945104 0
  5 1.00011 4.46532e-06
  6 109.47 0.000417683
---------------- Step   415000 ----- CPU =   1156.7882 (sec) ----------------
TotEng   =     -3340.9999 KinEng   =       646.3050 Temp     =       298.3788 
PotEng   =     -3987.3050 E_bond   =         0.0395 E_angle  =         3.0408 
E_dihed  =         0.7290 E_impro  =         0.0000 E_vdwl   =       711.4450 
E_coul   =     14793.0287 E_long   =    -19495.5880 Press    =     -1810.1464 
Volume   =     11511.4820 
SHAKE stats (type/ave/delta) on step 420000
  2 1.09002 1.22475e-07
  4 0.945018 1.55431e-15
  5 1.00002 4.40091e-06
  6 109.47 0.000384877
---------------- Step   420000 ----- CPU =   1170.7705 (sec) ----------------
TotEng   =     -3317.3385 KinEng   =       609.0417 Temp     =       281.1755 
PotEng   =     -3926.3801 E_bond   =         0.3150 E_angle  =         3.6168 
E_dihed  =         1.2217 E_impro  =         0.0000 E_vdwl   =       680.8190 
E_coul   =     14887.4323 E_long   =    -19499.7849 Press    =     -1735.0999 
Volume   =     11340.9491 
SHAKE stats (type/ave/delta) on step 425000
  2 1.08996 4.05332e-07
  4 0.944969 0
  5 0.999968 4.74667e-06
  6 109.47 0.000408702
---------------- Step   425000 ----- CPU =   1184.6259 (sec) ----------------
TotEng   =     -3331.7941 KinEng   =       657.9077 Temp     =       303.7354 
PotEng   =     -3989.7019 E_bond   =         0.0057 E_angle  =         4.3854 
E_dihed  =         1.0121 E_impro  =         0.0000 E_vdwl   =       790.6574 
E_coul   =     14711.6856 E_long   =    -19497.4481 Press    =       507.4802 
Volume   =     10912.4040 
SHAKE stats (type/ave/delta) on step 430000
  2 1.0899 2.63217e-06
  4 0.944912 0
  5 0.999908 7.27376e-06
  6 109.47 0.000853243
---------------- Step   430000 ----- CPU =   1198.5122 (sec) ----------------
TotEng   =     -3391.5635 KinEng   =       642.1637 Temp     =       296.4669 
PotEng   =     -4033.7272 E_bond   =         0.3795 E_angle  =         2.2330 
E_dihed  =         0.7042 E_impro  =         0.0000 E_vdwl   =       782.4612 
E_coul   =     14678.8724 E_long   =    -19498.3775 Press    =      -270.9677 
Volume   =     11135.2549 
SHAKE stats (type/ave/delta) on step 435000
  2 1.09002 1.54694e-06
  4 0.945022 0
  5 1.00002 1.01467e-05
  6 109.47 0.000932999
---------------- Step   435000 ----- CPU =   1212.2847 (sec) ----------------
TotEng   =     -3320.6542 KinEng   =       651.3886 Temp     =       300.7257 
PotEng   =     -3972.0428 E_bond   =         0.0355 E_angle  =         3.4038 
E_dihed  =         0.9825 E_impro  =         0.0000 E_vdwl   =       717.5800 
E_coul   =     14801.9003 E_long   =    -19495.9448 Press    =     -1254.7408 
Volume   =     11244.8101 
SHAKE stats (type/ave/delta) on step 440000
  2 1.09001 1.16935e-06
  4 0.945008 0
  5 1.00001 9.20133e-06
  6 109.47 0.000779894
---------------- Step   440000 ----- CPU =   1226.2503 (sec) ----------------
TotEng   =     -3389.5799 KinEng   =       605.6301 Temp     =       279.6005 
PotEng   =     -3995.2100 E_bond   =         0.8667 E_angle  =         3.3196 
E_dihed  =         0.5306 E_impro  =         0.0000 E_vdwl   =       803.6395 
E_coul   =     14693.7031 E_long   =    -19497.2696 Press    =       652.1155 
Volume   =     10931.3357 
SHAKE stats (type/ave/delta) on step 445000
  2 1.0899 2.04527e-06
  4 0.944918 0
  5 0.999912 6.56241e-06
  6 109.47 0.000567692
---------------- Step   445000 ----- CPU =   1240.6043 (sec) ----------------
TotEng   =     -3325.3071 KinEng   =       677.9843 Temp     =       313.0041 
PotEng   =     -4003.2913 E_bond   =         0.1203 E_angle  =         2.6600 
E_dihed  =         0.5890 E_impro  =         0.0000 E_vdwl   =       784.4699 
E_coul   =     14702.8391 E_long   =    -19493.9695 Press    =        25.8480 
Volume   =     11231.4792 
SHAKE stats (type/ave/delta) on step 450000
  2 1.08997 1.54231e-06
  4 0.94497 0
  5 0.999971 8.38381e-06
  6 109.47 0.000897245
---------------- Step   450000 ----- CPU =   1254.8261 (sec) ----------------
TotEng   =     -3291.3536 KinEng   =       676.4935 Temp     =       312.3159 
PotEng   =     -3967.8471 E_bond   =         1.3164 E_angle  =         4.7867 
E_dihed  =         0.0988 E_impro  =         0.0000 E_vdwl   =       756.8890 
E_coul   =     14768.5359 E_long   =    -19499.4738 Press    =      -107.3971 
Volume   =     10968.7974 
SHAKE stats (type/ave/delta) on step 455000
  2 1.08985 7.00195e-06
  4 0.944871 0
  5 0.999865 1.19023e-05
  6 109.47 0.000902853
---------------- Step   455000 ----- CPU =   1268.3995 (sec) ----------------
TotEng   =     -3353.5339 KinEng   =       656.2007 Temp     =       302.9473 
PotEng   =     -4009.7345 E_bond   =         0.1921 E_angle  =         3.9068 
E_dihed  =         1.6146 E_impro  =         0.0000 E_vdwl   =       820.1945 
E_coul   =     14662.8120 E_long   =    -19498.4545 Press    =      1377.6504 
Volume   =     10699.5919 
SHAKE stats (type/ave/delta) on step 460000
  2 1.08999 1.36334e-06
  4 0.944991 0
  5 0.999991 6.74447e-06
  6 109.47 0.000597299
---------------- Step   460000 ----- CPU =   1282.4217 (sec) ----------------
TotEng   =     -3343.2150 KinEng   =       655.5908 Temp     =       302.6658 
PotEng   =     -3998.8058 E_bond   =         0.4150 E_angle  =         6.9245 
E_dihed  =         0.9456 E_impro  =         0.0000 E_vdwl   =       740.3941 
E_coul   =     14750.5562 E_long   =    -19498.0412 Press    =      -132.7848 
Volume   =     10718.8767 
SHAKE stats (type/ave/delta) on step 465000
  2 1.08991 2.34906e-06
  4 0.944923 0
  5 0.999919 4.24935e-06
  6 109.47 0.000455264
---------------- Step   465000 ----- CPU =   1296.1215 (sec) ----------------
TotEng   =     -3296.3600 KinEng   =       693.4331 Temp     =       320.1364 
PotEng   =     -3989.7931 E_bond   =         2.6432 E_angle  =         5.8290 
E_dihed  =         0.0914 E_impro  =         0.0000 E_vdwl   =       752.1587 
E_coul   =     14749.8851 E_long   =    -19500.4005 Press    =       240.6864 
Volume   =     10967.2297 
SHAKE stats (type/ave/delta) on step 470000
  2 1.08991 1.88016e-06
  4 0.944926 0
  5 0.999922 5.79362e-06
  6 109.47 0.000507467
---------------- Step   470000 ----- CPU =   1310.2114 (sec) ----------------
TotEng   =     -3328.6445 KinEng   =       674.9761 Temp     =       311.6153 
PotEng   =     -4003.6206 E_bond   =         1.0089 E_angle  =         3.6043 
E_dihed  =         2.1160 E_impro  =         0.0000 E_vdwl   =       746.7099 
E_coul   =     14742.0959 E_long   =    -19499.1555 Press    =      -355.3173 
Volume   =     10938.8821 
SHAKE stats (type/ave/delta) on step 475000
  2 1.09013 1.55583e-06
  4 0.945114 0
  5 1.00012 9.51253e-06
  6 109.47 0.000818756
---------------- Step   475000 ----- CPU =   1324.4211 (sec) ----------------
TotEng   =     -3341.8688 KinEng   =       635.9353 Temp     =       293.5914 
PotEng   =     -3977.8040 E_bond   =         0.7081 E_angle  =         7.4249 
E_dihed  =         1.0484 E_impro  =         0.0000 E_vdwl   =       724.3634 
E_coul   =     14786.3704 E_long   =    -19497.7193 Press    =     -1017.4287 
Volume   =     11267.6696 
SHAKE stats (type/ave/delta) on step 480000
  2 1.08997 2.49277e-06
  4 0.944976 0
  5 0.999975 5.14898e-06
  6 109.47 0.000647581
---------------- Step   480000 ----- CPU =   1338.3835 (sec) ----------------
TotEng   =     -3377.7067 KinEng   =       666.9978 Temp     =       307.9320 
PotEng   =     -4044.7045 E_bond   =         0.4145 E_angle  =         4.0910 
E_dihed  =         3.1643 E_impro  =         0.0000 E_vdwl   =       830.2057 
E_coul   =     14613.5579 E_long   =    -19496.1379 Press    =      1009.9635 
Volume   =     10841.7507 
SHAKE stats (type/ave/delta) on step 485000
  2 1.09011 2.62144e-06
  4 0.945096 0
  5 1.0001 6.7291e-06
  6 109.47 0.000506035
---------------- Step   485000 ----- CPU =   1352.5154 (sec) ----------------
TotEng   =     -3290.7555 KinEng   =       622.7108 Temp     =       287.4861 
PotEng   =     -3913.4663 E_bond   =         0.7907 E_angle  =         4.6651 
E_dihed  =         0.7626 E_impro  =         0.0000 E_vdwl   =       687.9950 
E_coul   =     14888.6757 E_long   =    -19496.3554 Press    =     -1109.8630 
Volume   =     11017.8444 
SHAKE stats (type/ave/delta) on step 490000
  2 1.08996 2.22118e-06
  4 0.944969 0
  5 0.999967 1.08794e-05
  6 109.47 0.000686332
---------------- Step   490000 ----- CPU =   1366.3917 (sec) ----------------
TotEng   =     -3362.4822 KinEng   =       665.0686 Temp     =       307.0414 
PotEng   =     -4027.5509 E_bond   =         1.6947 E_angle  =         2.8607 
E_dihed  =         0.5046 E_impro  =         0.0000 E_vdwl   =       721.2120 
E_coul   =     14745.9607 E_long   =    -19499.7835 Press    =     -1222.1576 
Volume   =     10861.1858 
SHAKE stats (type/ave/delta) on step 495000
  2 1.09002 6.77287e-07
  4 0.94502 0
  5 1.00002 5.61209e-06
  6 109.47 0.000516344
---------------- Step   495000 ----- CPU =   1380.6740 (sec) ----------------
TotEng   =     -3339.2945 KinEng   =       659.9016 Temp     =       304.6559 
PotEng   =     -3999.1960 E_bond   =         1.0376 E_angle  =         2.6260 
E_dihed  =         0.1725 E_impro  =         0.0000 E_vdwl   =       751.9301 
E_coul   =     14743.5545 E_long   =    -19498.5168 Press    =      -117.2476 
Volume   =     10869.9125 
SHAKE stats (type/ave/delta) on step 500000
  2 1.08998 1.8682e-07
  4 0.944985 0
  5 0.999984 4.23189e-06
  6 109.47 0.000389702
---------------- Step   500000 ----- CPU =   1394.8937 (sec) ----------------
TotEng   =     -3282.7505 KinEng   =       655.5360 Temp     =       302.6405 
PotEng   =     -3938.2865 E_bond   =         0.2748 E_angle  =         3.2511 
E_dihed  =         0.1821 E_impro  =         0.0000 E_vdwl   =       684.4815 
E_coul   =     14868.6083 E_long   =    -19495.0844 Press    =     -1319.1931 
Volume   =     11098.5247 
SHAKE stats (type/ave/delta) on step 505000
  2 1.09009 1.00221e-06
  4 0.945074 0
  5 1.00008 4.56683e-06
  6 109.47 0.000349746
---------------- Step   505000 ----- CPU =   1408.1512 (sec) ----------------
TotEng   =     -3322.2079 KinEng   =       679.7600 Temp     =       313.8239 
PotEng   =     -4001.9679 E_bond   =         0.0818 E_angle  =         3.4523 
E_dihed  =         0.0858 E_impro  =         0.0000 E_vdwl   =       764.2298 
E_coul   =     14725.7084 E_long   =    -19495.5259 Press    =      -393.7288 
Volume   =     11204.4272 
SHAKE stats (type/ave/delta) on step 510000
  2 1.09001 7.02718e-07
  4 0.94501 0
  5 1.00001 1.11778e-05
  6 109.47 0.000881125
---------------- Step   510000 ----- CPU =   1421.7737 (sec) ----------------
TotEng   =     -3432.9055 KinEng   =       652.1080 Temp     =       301.0579 
PotEng   =     -4085.0135 E_bond   =         0.0115 E_angle  =         2.6311 
E_dihed  =         0.4400 E_impro  =         0.0000 E_vdwl   =       800.1739 
E_coul   =     14612.8126 E_long   =    -19501.0827 Press    =       161.8405 
Volume   =     10905.4767 
SHAKE stats (type/ave/delta) on step 515000
  2 1.08994 2.58258e-07
  4 0.944946 0
  5 0.999944 4.4462e-06
  6 109.47 0.00040806
---------------- Step   515000 ----- CPU =   1434.5793 (sec) ----------------
TotEng   =     -3318.6572 KinEng   =       675.1910 Temp     =       311.7146 
PotEng   =     -3993.8482 E_bond   =         0.4877 E_angle  =         2.4993 
E_dihed  =         1.8584 E_impro  =         0.0000 E_vdwl   =       732.9439 
E_coul   =     14766.4907 E_long   =    -19498.1282 Press    =     -1044.1589 
Volume   =     11208.5625 
SHAKE stats (type/ave/delta) on step 520000
  2 1.08993 1.21046e-06
  4 0.944937 0
  5 0.999933 1.0367e-05
  6 109.47 0.00129669
---------------- Step   520000 ----- CPU =   1447.7294 (sec) ----------------
TotEng   =     -3234.2757 KinEng   =       687.2615 Temp     =       317.2871 
PotEng   =     -3921.5372 E_bond   =         0.1629 E_angle  =         3.9161 
E_dihed  =         0.3738 E_impro  =         0.0000 E_vdwl   =       757.5700 
E_coul   =     14810.8189 E_long   =    -19494.3788 Press    =       563.6863 
Volume   =     11025.3395 
SHAKE stats (type/ave/delta) on step 525000
  2 1.09007 3.72667e-07
  4 0.945062 0
  5 1.00007 5.2286e-06
  6 109.47 0.000429075
---------------- Step   525000 ----- CPU =   1460.7922 (sec) ----------------
TotEng   =     -3302.8394 KinEng   =       617.8485 Temp     =       285.2413 
PotEng   =     -3920.6879 E_bond   =         0.3731 E_angle  =         2.2669 
E_dihed  =         0.8429 E_impro  =         0.0000 E_vdwl   =       740.6114 
E_coul   =     14832.9382 E_long   =    -19497.7203 Press    =        -9.9824 
Volume   =     11125.4860 
SHAKE stats (type/ave/delta) on step 530000
  2 1.09003 4.361e-06
  4 0.945029 0
  5 1.00003 1.60815e-05
  6 109.47 0.00132707
---------------- Step   530000 ----- CPU =   1474.7393 (sec) ----------------
TotEng   =     -3267.0138 KinEng   =       665.8677 Temp     =       307.4103 
PotEng   =     -3932.8815 E_bond   =         0.7010 E_angle  =         2.6078 
E_dihed  =         0.4099 E_impro  =         0.0000 E_vdwl   =       768.8190 
E_coul   =     14792.9660 E_long   =    -19498.3852 Press    =      1010.4710 
Volume   =     10820.4568 
SHAKE stats (type/ave/delta) on step 535000
  2 1.08989 2.21351e-06
  4 0.944905 0
  5 0.999902 1.07505e-05
  6 109.47 0.00103288
---------------- Step   535000 ----- CPU =   1488.5071 (sec) ----------------
TotEng   =     -3384.3374 KinEng   =       657.1465 Temp     =       303.3840 
PotEng   =     -4041.4839 E_bond   =         0.1743 E_angle  =         4.8386 
E_dihed  =         0.3766 E_impro  =         0.0000 E_vdwl   =       751.7678 
E_coul   =     14699.1252 E_long   =    -19497.7665 Press    =      -796.5436 
Volume   =     11035.2257 
SHAKE stats (type/ave/delta) on step 540000
  2 1.08988 4.73638e-07
  4 0.944898 0
  5 0.999893 3.95942e-06
  6 109.47 0.000390654
---------------- Step   540000 ----- CPU =   1502.9049 (sec) ----------------
TotEng   =     -3268.0099 KinEng   =       692.1025 Temp     =       319.5221 
PotEng   =     -3960.1123 E_bond   =         0.5913 E_angle  =         3.4957 
E_dihed  =         0.6646 E_impro  =         0.0000 E_vdwl   =       700.9064 
E_coul   =     14832.2773 E_long   =    -19498.0477 Press    =      -867.9577 
Volume   =     10920.2863 
SHAKE stats (type/ave/delta) on step 545000
  2 1.08994 1.04205e-06
  4 0.944948 0
  5 0.999946 4.96165e-06
  6 109.47 0.000472067
---------------- Step   545000 ----- CPU =   1516.7464 (sec) ----------------
TotEng   =     -3351.4897 KinEng   =       634.3445 Temp     =       292.8570 
PotEng   =     -3985.8342 E_bond   =         0.7910 E_angle  =         2.9724 
E_dihed  =         0.0638 E_impro  =         0.0000 E_vdwl   =       781.3333 
E_coul   =     14729.9055 E_long   =    -19500.9001 Press    =       687.3880 
Volume   =     10874.3508 
SHAKE stats (type/ave/delta) on step 550000
  2 1.0899 2.22115e-06
  4 0.944911 0
  5 0.999906 5.00503e-06
  6 109.47 0.000420754
---------------- Step   550000 ----- CPU =   1530.7290 (sec) ----------------
TotEng   =     -3387.2208 KinEng   =       633.2258 Temp     =       292.3406 
PotEng   =     -4020.4467 E_bond   =         0.7438 E_angle  =         5.7456 
E_dihed  =         0.4745 E_impro  =         0.0000 E_vdwl   =       790.2452 
E_coul   =     14679.8550 E_long   =    -19497.5107 Press    =       652.0537 
Volume   =     10711.3689 
SHAKE stats (type/ave/delta) on step 555000
  2 1.08987 3.96348e-06
  4 0.944882 0
  5 0.999877 1.13412e-05
  6 109.47 0.000768865
---------------- Step   555000 ----- CPU =   1544.2915 (sec) ----------------
TotEng   =     -3356.2446 KinEng   =       636.7731 Temp     =       293.9782 
PotEng   =     -3993.0177 E_bond   =         0.7000 E_angle  =         5.8017 
E_dihed  =         0.2006 E_impro  =         0.0000 E_vdwl   =       776.5185 
E_coul   =     14720.4987 E_long   =    -19496.7372 Press    =       114.9010 
Volume   =     11034.8985 
SHAKE stats (type/ave/delta) on step 560000
  2 1.09002 3.14996e-06
  4 0.945013 0
  5 1.00001 9.26937e-06
  6 109.47 0.000873686
---------------- Step   560000 ----- CPU =   1558.8531 (sec) ----------------
TotEng   =     -3356.3183 KinEng   =       620.5312 Temp     =       286.4799 
PotEng   =     -3976.8495 E_bond   =         0.0407 E_angle  =         9.2650 
E_dihed  =         0.6807 E_impro  =         0.0000 E_vdwl   =       742.0351 
E_coul   =     14768.6795 E_long   =    -19497.5505 Press    =      -552.3422 
Volume   =     11045.8896 
SHAKE stats (type/ave/delta) on step 565000
  2 1.08996 2.05207e-06
  4 0.944964 0
  5 0.999963 4.82415e-06
  6 109.47 0.000483785
---------------- Step   565000 ----- CPU =   1572.9356 (sec) ----------------
TotEng   =     -3246.4705 KinEng   =       693.8293 Temp     =       320.3193 
PotEng   =     -3940.2998 E_bond   =         0.6737 E_angle  =         5.9439 
E_dihed  =         0.6694 E_impro  =         0.0000 E_vdwl   =       805.6650 
E_coul   =     14743.5492 E_long   =    -19496.8010 Press    =      1231.7767 
Volume   =     11038.8931 
SHAKE stats (type/ave/delta) on step 570000
  2 1.08999 2.19251e-07
  4 0.944988 0
  5 0.999988 4.11382e-06
  6 109.47 0.00036243
---------------- Step   570000 ----- CPU =   1587.0610 (sec) ----------------
TotEng   =     -3350.2688 KinEng   =       653.7303 Temp     =       301.8068 
PotEng   =     -4003.9991 E_bond   =         0.6389 E_angle  =         3.4332 
E_dihed  =         1.3073 E_impro  =         0.0000 E_vdwl   =       823.2202 
E_coul   =     14666.4097 E_long   =    -19499.0084 Press    =       968.4948 
Volume   =     11027.5671 
SHAKE stats (type/ave/delta) on step 575000
  2 1.09 2.28413e-06
  4 0.944994 0
  5 0.999998 5.89833e-06
  6 109.47 0.000588581
---------------- Step   575000 ----- CPU =   1601.2253 (sec) ----------------
TotEng   =     -3279.2057 KinEng   =       639.9862 Temp     =       295.4616 
PotEng   =     -3919.1919 E_bond   =         0.3419 E_angle  =         4.9334 
E_dihed  =         0.1388 E_impro  =         0.0000 E_vdwl   =       766.9467 
E_coul   =     14804.3360 E_long   =    -19495.8887 Press    =      1060.1263 
Volume   =     10724.4467 
SHAKE stats (type/ave/delta) on step 580000
  2 1.09012 5.46566e-07
  4 0.945104 0
  5 1.00011 7.70404e-06
  6 109.47 0.000673386
---------------- Step   580000 ----- CPU =   1615.2225 (sec) ----------------
TotEng   =     -3414.9796 KinEng   =       656.8162 Temp     =       303.2315 
PotEng   =     -4071.7958 E_bond   =         1.1158 E_angle  =         3.8902 
E_dihed  =         0.6213 E_impro  =         0.0000 E_vdwl   =       810.4011 
E_coul   =     14609.7624 E_long   =    -19497.5867 Press    =       296.1275 
Volume   =     10888.0266 
SHAKE stats (type/ave/delta) on step 585000
  2 1.08992 4.57565e-07
  4 0.944932 0
  5 0.999928 7.80887e-06
  6 109.47 0.000687379
---------------- Step   585000 ----- CPU =   1629.0099 (sec) ----------------
TotEng   =     -3347.6323 KinEng   =       632.1848 Temp     =       291.8600 
PotEng   =     -3979.8172 E_bond   =         0.6375 E_angle  =         2.5400 
E_dihed  =         0.2824 E_impro  =         0.0000 E_vdwl   =       785.9576 
E_coul   =     14728.2493 E_long   =    -19497.4839 Press    =       682.6124 
Volume   =     10857.3643 
SHAKE stats (type/ave/delta) on step 590000
  2 1.09009 6.47317e-07
  4 0.945077 0
  5 1.00008 5.41147e-06
  6 109.47 0.000444514
---------------- Step   590000 ----- CPU =   1643.1093 (sec) ----------------
TotEng   =     -3367.4471 KinEng   =       666.2793 Temp     =       307.6003 
PotEng   =     -4033.7264 E_bond   =         0.6561 E_angle  =         3.5453 
E_dihed  =         0.1556 E_impro  =         0.0000 E_vdwl   =       783.2900 
E_coul   =     14678.3060 E_long   =    -19499.6795 Press    =       407.9470 
Volume   =     10778.4941 
SHAKE stats (type/ave/delta) on step 595000
  2 1.09011 8.89275e-07
  4 0.945098 0
  5 1.0001 8.99193e-06
  6 109.47 0.000719565
---------------- Step   595000 ----- CPU =   1657.2155 (sec) ----------------
TotEng   =     -3386.3982 KinEng   =       628.3759 Temp     =       290.1015 
PotEng   =     -4014.7741 E_bond   =         0.0125 E_angle  =         1.7397 
E_dihed  =         0.7856 E_impro  =         0.0000 E_vdwl   =       718.6689 
E_coul   =     14761.9649 E_long   =    -19497.9458 Press    =     -1123.7670 
Volume   =     10979.9549 
[...]
  6 109.47 0.000457543
---------------- Step  2335000 ----- CPU =   6495.1450 (sec) ----------------
TotEng   =     -3330.0061 KinEng   =       652.8153 Temp     =       301.3844 
PotEng   =     -3982.8214 E_bond   =         0.1063 E_angle  =         2.6647 
E_dihed  =         0.5086 E_impro  =         0.0000 E_vdwl   =       734.8859 
E_coul   =     14774.6058 E_long   =    -19495.5927 Press    =        17.6740 
Volume   =     10680.8235 
SHAKE stats (type/ave/delta) on step 2340000
  2 1.09003 1.40906e-07
  4 0.945024 0
  5 1.00003 4.65188e-06
  6 109.47 0.00039737
---------------- Step  2340000 ----- CPU =   6509.5513 (sec) ----------------
TotEng   =     -3391.0539 KinEng   =       639.8788 Temp     =       295.4120 
PotEng   =     -4030.9327 E_bond   =         0.2948 E_angle  =         2.8085 
E_dihed  =         1.4132 E_impro  =         0.0000 E_vdwl   =       733.5870 
E_coul   =     14727.8613 E_long   =    -19496.8975 Press    =      -763.1086 
Volume   =     10823.5812 
SHAKE stats (type/ave/delta) on step 2345000
  2 1.08995 4.43468e-07
  4 0.944954 0
  5 0.999951 4.73008e-06
  6 109.47 0.000548041
---------------- Step  2345000 ----- CPU =   6523.9497 (sec) ----------------
TotEng   =     -3282.7102 KinEng   =       673.8433 Temp     =       311.0924 
PotEng   =     -3956.5535 E_bond   =         0.9857 E_angle  =         3.2696 
E_dihed  =         1.2422 E_impro  =         0.0000 E_vdwl   =       788.1783 
E_coul   =     14747.2103 E_long   =    -19497.4395 Press    =      1098.5136 
Volume   =     10861.1190 
SHAKE stats (type/ave/delta) on step 2350000
  2 1.08998 2.34735e-07
  4 0.944982 0
  5 0.999981 3.96919e-06
  6 109.47 0.000391314
---------------- Step  2350000 ----- CPU =   6538.2403 (sec) ----------------
TotEng   =     -3291.5010 KinEng   =       684.7872 Temp     =       316.1448 
PotEng   =     -3976.2883 E_bond   =         2.2723 E_angle  =         2.5055 
E_dihed  =         0.4354 E_impro  =         0.0000 E_vdwl   =       740.7239 
E_coul   =     14776.3475 E_long   =    -19498.5728 Press    =      -532.4590 
Volume   =     10962.6706 
SHAKE stats (type/ave/delta) on step 2355000
  2 1.09003 7.80877e-07
  4 0.945024 0
  5 1.00003 5.32543e-06
  6 109.47 0.000416049
---------------- Step  2355000 ----- CPU =   6552.3305 (sec) ----------------
TotEng   =     -3301.8443 KinEng   =       677.8573 Temp     =       312.9455 
PotEng   =     -3979.7016 E_bond   =         1.0900 E_angle  =         2.6019 
E_dihed  =         1.7207 E_impro  =         0.0000 E_vdwl   =       803.6059 
E_coul   =     14707.4041 E_long   =    -19496.1243 Press    =       997.7386 
Volume   =     10893.3259 
SHAKE stats (type/ave/delta) on step 2360000
  2 1.08994 1.32879e-06
  4 0.944946 0
  5 0.999943 5.54973e-06
  6 109.47 0.000381337
---------------- Step  2360000 ----- CPU =   6566.5967 (sec) ----------------
TotEng   =     -3338.0859 KinEng   =       660.4209 Temp     =       304.8957 
PotEng   =     -3998.5068 E_bond   =         0.2532 E_angle  =         1.8844 
E_dihed  =         0.3894 E_impro  =         0.0000 E_vdwl   =       771.7395 
E_coul   =     14723.8009 E_long   =    -19496.5743 Press    =       309.1770 
Volume   =     10835.1870 
SHAKE stats (type/ave/delta) on step 2365000
  2 1.08997 1.06826e-06
  4 0.944974 0
  5 0.999975 1.05122e-05
  6 109.47 0.000730173
---------------- Step  2365000 ----- CPU =   6580.6814 (sec) ----------------
TotEng   =     -3397.5833 KinEng   =       631.4493 Temp     =       291.5204 
PotEng   =     -4029.0326 E_bond   =         1.3966 E_angle  =         5.2392 
E_dihed  =         0.6509 E_impro  =         0.0000 E_vdwl   =       767.3918 
E_coul   =     14694.4227 E_long   =    -19498.1337 Press    =      -291.2618 
Volume   =     10928.7143 
SHAKE stats (type/ave/delta) on step 2370000
  2 1.08989 1.55195e-06
  4 0.944904 0
  5 0.9999 6.87397e-06
  6 109.47 0.000747291
---------------- Step  2370000 ----- CPU =   6594.8826 (sec) ----------------
TotEng   =     -3397.9169 KinEng   =       642.5087 Temp     =       296.6262 
PotEng   =     -4040.4257 E_bond   =         0.5542 E_angle  =         4.3667 
E_dihed  =         0.3065 E_impro  =         0.0000 E_vdwl   =       799.7059 
E_coul   =     14653.3079 E_long   =    -19498.6668 Press    =       -73.9312 
Volume   =     11126.8984 
SHAKE stats (type/ave/delta) on step 2375000
  2 1.09003 6.74845e-07
  4 0.945026 0
  5 1.00003 4.37494e-06
  6 109.47 0.000401006
---------------- Step  2375000 ----- CPU =   6609.5546 (sec) ----------------
TotEng   =     -3380.9887 KinEng   =       625.4542 Temp     =       288.7527 
PotEng   =     -4006.4429 E_bond   =         0.0375 E_angle  =         2.8918 
E_dihed  =         0.6231 E_impro  =         0.0000 E_vdwl   =       714.6175 
E_coul   =     14774.6238 E_long   =    -19499.2367 Press    =     -1440.4078 
Volume   =     11124.1963 
SHAKE stats (type/ave/delta) on step 2380000
  2 1.08988 1.49203e-06
  4 0.944896 0
  5 0.999891 1.00925e-05
  6 109.47 0.000604994
---------------- Step  2380000 ----- CPU =   6622.8590 (sec) ----------------
TotEng   =     -3357.3963 KinEng   =       652.2134 Temp     =       301.1065 
PotEng   =     -4009.6097 E_bond   =         0.8800 E_angle  =         3.2598 
E_dihed  =         0.8031 E_impro  =         0.0000 E_vdwl   =       764.5976 
E_coul   =     14718.3368 E_long   =    -19497.4870 Press    =      -134.2899 
Volume   =     11041.1915 
SHAKE stats (type/ave/delta) on step 2385000
  2 1.08995 1.05941e-06
  4 0.944956 0
  5 0.999954 1.13735e-05
  6 109.47 0.00108475
---------------- Step  2385000 ----- CPU =   6636.6090 (sec) ----------------
TotEng   =     -3377.7890 KinEng   =       653.3837 Temp     =       301.6468 
PotEng   =     -4031.1727 E_bond   =         1.4179 E_angle  =         4.2473 
E_dihed  =         1.8510 E_impro  =         0.0000 E_vdwl   =       721.9128 
E_coul   =     14738.6723 E_long   =    -19499.2740 Press    =      -827.3576 
Volume   =     10882.4594 
SHAKE stats (type/ave/delta) on step 2390000
  2 1.09003 2.60782e-06
  4 0.945026 0
  5 1.00003 1.29149e-05
  6 109.47 0.00102467
---------------- Step  2390000 ----- CPU =   6649.7514 (sec) ----------------
TotEng   =     -3289.6512 KinEng   =       666.3504 Temp     =       307.6331 
PotEng   =     -3956.0016 E_bond   =         0.0254 E_angle  =         4.3379 
E_dihed  =         0.3526 E_impro  =         0.0000 E_vdwl   =       719.8880 
E_coul   =     14818.6971 E_long   =    -19499.3025 Press    =      -224.0207 
Volume   =     10801.7649 
SHAKE stats (type/ave/delta) on step 2395000
  2 1.08996 6.69264e-07
  4 0.944963 0
  5 0.999962 5.26181e-06
  6 109.47 0.000477785
---------------- Step  2395000 ----- CPU =   6662.8232 (sec) ----------------
TotEng   =     -3382.3606 KinEng   =       653.4773 Temp     =       301.6900 
PotEng   =     -4035.8379 E_bond   =         0.3337 E_angle  =         3.5440 
E_dihed  =         0.7625 E_impro  =         0.0000 E_vdwl   =       808.7647 
E_coul   =     14649.6007 E_long   =    -19498.8435 Press    =       640.4894 
Volume   =     11021.8441 
SHAKE stats (type/ave/delta) on step 2400000
  2 1.09009 1.19711e-07
  4 0.945078 0
  5 1.00008 4.7832e-06
  6 109.47 0.000387695
---------------- Step  2400000 ----- CPU =   6675.9135 (sec) ----------------
TotEng   =     -3381.3911 KinEng   =       633.5954 Temp     =       292.5112 
PotEng   =     -4014.9865 E_bond   =         0.0235 E_angle  =         3.4154 
E_dihed  =         0.0653 E_impro  =         0.0000 E_vdwl   =       759.9356 
E_coul   =     14719.3970 E_long   =    -19497.8234 Press    =      -118.8668 
Volume   =     10867.3266 
SHAKE stats (type/ave/delta) on step 2405000
  2 1.08998 7.85764e-07
  4 0.944986 0
  5 0.999986 5.13805e-06
  6 109.47 0.00038328
---------------- Step  2405000 ----- CPU =   6690.0985 (sec) ----------------
TotEng   =     -3362.2086 KinEng   =       659.3980 Temp     =       304.4235 
PotEng   =     -4021.6066 E_bond   =         2.4987 E_angle  =         4.7344 
E_dihed  =         0.4341 E_impro  =         0.0000 E_vdwl   =       800.1725 
E_coul   =     14670.1122 E_long   =    -19499.5586 Press    =         8.4758 
Volume   =     11110.9971 
SHAKE stats (type/ave/delta) on step 2410000
  2 1.09004 9.48674e-07
  4 0.945035 0
  5 1.00004 1.2673e-05
  6 109.47 0.000888162
---------------- Step  2410000 ----- CPU =   6704.0869 (sec) ----------------
TotEng   =     -3412.7636 KinEng   =       665.0182 Temp     =       307.0181 
PotEng   =     -4077.7818 E_bond   =         0.3449 E_angle  =         2.6423 
E_dihed  =         0.7001 E_impro  =         0.0000 E_vdwl   =       767.0338 
E_coul   =     14648.4470 E_long   =    -19496.9499 Press    =      -694.0801 
Volume   =     10869.5290 
SHAKE stats (type/ave/delta) on step 2415000
  2 1.09009 1.61071e-06
  4 0.945077 0
  5 1.00008 7.31919e-06
  6 109.47 0.000587796
---------------- Step  2415000 ----- CPU =   6717.7788 (sec) ----------------
TotEng   =     -3354.6127 KinEng   =       644.1560 Temp     =       297.3867 
PotEng   =     -3998.7687 E_bond   =         0.3414 E_angle  =         3.1933 
E_dihed  =         1.6270 E_impro  =         0.0000 E_vdwl   =       786.8302 
E_coul   =     14710.0651 E_long   =    -19500.8256 Press    =       542.4732 
Volume   =     10733.4336 
SHAKE stats (type/ave/delta) on step 2420000
  2 1.09006 1.38394e-06
  4 0.94505 0
  5 1.00005 8.88313e-06
  6 109.47 0.00093171
---------------- Step  2420000 ----- CPU =   6731.7596 (sec) ----------------
TotEng   =     -3355.7792 KinEng   =       680.7226 Temp     =       314.2683 
PotEng   =     -4036.5017 E_bond   =         0.2090 E_angle  =         3.7920 
E_dihed  =         1.0520 E_impro  =         0.0000 E_vdwl   =       819.2164 
E_coul   =     14635.8967 E_long   =    -19496.6678 Press    =       565.3649 
Volume   =     11118.0765 
SHAKE stats (type/ave/delta) on step 2425000
  2 1.08989 8.9092e-07
  4 0.94491 0
  5 0.999904 5.03602e-06
  6 109.47 0.000421988
---------------- Step  2425000 ----- CPU =   6745.7685 (sec) ----------------
TotEng   =     -3408.1555 KinEng   =       619.3401 Temp     =       285.9300 
PotEng   =     -4027.4956 E_bond   =         0.0557 E_angle  =         2.7690 
E_dihed  =         2.2423 E_impro  =         0.0000 E_vdwl   =       779.0575 
E_coul   =     14689.1015 E_long   =    -19500.7217 Press    =        28.3059 
Volume   =     10895.6210 
SHAKE stats (type/ave/delta) on step 2430000
  2 1.0899 7.12188e-07
  4 0.944915 0
  5 0.999912 5.21362e-06
  6 109.47 0.00045387
---------------- Step  2430000 ----- CPU =   6759.4864 (sec) ----------------
TotEng   =     -3340.4235 KinEng   =       608.0452 Temp     =       280.7155 
PotEng   =     -3948.4687 E_bond   =         0.1540 E_angle  =         2.5680 
E_dihed  =         0.2616 E_impro  =         0.0000 E_vdwl   =       718.1728 
E_coul   =     14825.2305 E_long   =    -19494.8555 Press    =      -572.6161 
Volume   =     10986.3427 
SHAKE stats (type/ave/delta) on step 2435000
  2 1.09006 2.50432e-07
  4 0.945055 0
  5 1.00006 3.95479e-06
  6 109.47 0.000399921
---------------- Step  2435000 ----- CPU =   6773.5702 (sec) ----------------
TotEng   =     -3312.5236 KinEng   =       640.8467 Temp     =       295.8589 
PotEng   =     -3953.3702 E_bond   =         1.0509 E_angle  =         4.4775 
E_dihed  =         1.1420 E_impro  =         0.0000 E_vdwl   =       749.9715 
E_coul   =     14785.2751 E_long   =    -19495.2873 Press    =       111.8269 
Volume   =     10903.1669 
SHAKE stats (type/ave/delta) on step 2440000
  2 1.09006 2.44443e-06
  4 0.945054 0
  5 1.00006 1.49056e-05
  6 109.47 0.0012749
---------------- Step  2440000 ----- CPU =   6787.8027 (sec) ----------------
TotEng   =     -3316.6928 KinEng   =       659.0885 Temp     =       304.2805 
PotEng   =     -3975.7812 E_bond   =         0.3733 E_angle  =         2.8542 
E_dihed  =         1.0197 E_impro  =         0.0000 E_vdwl   =       762.7728 
E_coul   =     14755.5902 E_long   =    -19498.3915 Press    =      -116.7820 
Volume   =     11088.2020 
SHAKE stats (type/ave/delta) on step 2445000
  2 1.08991 1.06014e-06
  4 0.94493 0
  5 0.99992 1.21373e-05
  6 109.47 0.00118565
---------------- Step  2445000 ----- CPU =   6801.5162 (sec) ----------------
TotEng   =     -3309.0706 KinEng   =       665.2279 Temp     =       307.1149 
PotEng   =     -3974.2985 E_bond   =         0.2657 E_angle  =         3.0750 
E_dihed  =         0.4220 E_impro  =         0.0000 E_vdwl   =       765.7514 
E_coul   =     14753.9184 E_long   =    -19497.7311 Press    =        66.0580 
Volume   =     11070.1822 
SHAKE stats (type/ave/delta) on step 2450000
  2 1.08992 1.458e-07
  4 0.944935 0
  5 0.999932 3.75006e-06
  6 109.47 0.000386509
---------------- Step  2450000 ----- CPU =   6815.8337 (sec) ----------------
TotEng   =     -3349.0828 KinEng   =       639.1876 Temp     =       295.0929 
PotEng   =     -3988.2704 E_bond   =         0.1416 E_angle  =         3.0901 
E_dihed  =         2.5317 E_impro  =         0.0000 E_vdwl   =       781.6141 
E_coul   =     14721.5044 E_long   =    -19497.1524 Press    =       343.3019 
Volume   =     10983.3303 
SHAKE stats (type/ave/delta) on step 2455000
  2 1.09006 4.05359e-06
  4 0.94505 0
  5 1.00006 1.2796e-05
  6 109.47 0.000855994
---------------- Step  2455000 ----- CPU =   6829.8318 (sec) ----------------
TotEng   =     -3306.6069 KinEng   =       665.5482 Temp     =       307.2628 
PotEng   =     -3972.1551 E_bond   =         0.4207 E_angle  =         3.1686 
E_dihed  =         0.0706 E_impro  =         0.0000 E_vdwl   =       740.9895 
E_coul   =     14780.6975 E_long   =    -19497.5020 Press    =      -282.3378 
Volume   =     11046.1714 
SHAKE stats (type/ave/delta) on step 2460000
  2 1.09 6.51439e-08
  4 0.944996 0
  5 0.999997 3.6684e-06
  6 109.47 0.00037783
---------------- Step  2460000 ----- CPU =   6843.5012 (sec) ----------------
TotEng   =     -3290.4687 KinEng   =       685.5907 Temp     =       316.5158 
PotEng   =     -3976.0594 E_bond   =         1.5494 E_angle  =         2.7485 
E_dihed  =         0.2387 E_impro  =         0.0000 E_vdwl   =       784.1020 
E_coul   =     14732.9496 E_long   =    -19497.6477 Press    =       350.9081 
Volume   =     11089.4742 
SHAKE stats (type/ave/delta) on step 2465000
  2 1.08993 1.35222e-06
  4 0.944938 0
  5 0.999935 5.44071e-06
  6 109.47 0.000553194
---------------- Step  2465000 ----- CPU =   6857.3129 (sec) ----------------
TotEng   =     -3369.1122 KinEng   =       651.6077 Temp     =       300.8269 
PotEng   =     -4020.7199 E_bond   =         1.6823 E_angle  =         3.6503 
E_dihed  =         0.4107 E_impro  =         0.0000 E_vdwl   =       741.8643 
E_coul   =     14732.5096 E_long   =    -19500.8371 Press    =      -615.9841 
Volume   =     10837.5928 
SHAKE stats (type/ave/delta) on step 2470000
  2 1.09 3.56661e-07
  4 0.945 0
  5 1 4.76034e-06
  6 109.47 0.000393349
---------------- Step  2470000 ----- CPU =   6871.2945 (sec) ----------------
TotEng   =     -3341.4229 KinEng   =       642.8370 Temp     =       296.7778 
PotEng   =     -3984.2599 E_bond   =         0.2814 E_angle  =         5.3949 
E_dihed  =         1.4272 E_impro  =         0.0000 E_vdwl   =       749.5676 
E_coul   =     14757.2695 E_long   =    -19498.2006 Press    =      -218.4495 
Volume   =     10851.8319 
SHAKE stats (type/ave/delta) on step 2475000
  2 1.08995 1.32023e-06
  4 0.944957 0
  5 0.999956 5.44699e-06
  6 109.47 0.000510716
---------------- Step  2475000 ----- CPU =   6885.2048 (sec) ----------------
TotEng   =     -3349.0939 KinEng   =       649.1080 Temp     =       299.6729 
PotEng   =     -3998.2019 E_bond   =         1.2030 E_angle  =         3.7610 
E_dihed  =         0.0682 E_impro  =         0.0000 E_vdwl   =       762.4353 
E_coul   =     14733.3186 E_long   =    -19498.9880 Press    =      -280.6172 
Volume   =     10982.9349 
SHAKE stats (type/ave/delta) on step 2480000
  2 1.08987 2.34593e-06
  4 0.94489 0
  5 0.999884 3.76312e-06
  6 109.47 0.000529857
---------------- Step  2480000 ----- CPU =   6899.8119 (sec) ----------------
TotEng   =     -3329.5477 KinEng   =       627.5398 Temp     =       289.7155 
PotEng   =     -3957.0875 E_bond   =         0.2524 E_angle  =         4.6887 
E_dihed  =         1.5872 E_impro  =         0.0000 E_vdwl   =       755.3952 
E_coul   =     14777.1067 E_long   =    -19496.1177 Press    =      -103.0690 
Volume   =     10992.8921 
SHAKE stats (type/ave/delta) on step 2485000
  2 1.08999 3.87202e-06
  4 0.944989 0
  5 0.99999 8.274e-06
  6 109.47 0.00103829
---------------- Step  2485000 ----- CPU =   6913.6837 (sec) ----------------
TotEng   =     -3344.4062 KinEng   =       645.9449 Temp     =       298.2125 
PotEng   =     -3990.3510 E_bond   =         0.8048 E_angle  =         3.6361 
E_dihed  =         2.9318 E_impro  =         0.0000 E_vdwl   =       797.4691 
E_coul   =     14702.2085 E_long   =    -19497.4013 Press    =       835.9934 
Volume   =     10910.6943 
SHAKE stats (type/ave/delta) on step 2490000
  2 1.08993 2.22173e-06
  4 0.944938 0
  5 0.999935 1.1211e-05
  6 109.47 0.00115095
---------------- Step  2490000 ----- CPU =   6927.5894 (sec) ----------------
TotEng   =     -3353.4117 KinEng   =       640.2157 Temp     =       295.5676 
PotEng   =     -3993.6274 E_bond   =         0.0748 E_angle  =         3.6363 
E_dihed  =         1.0486 E_impro  =         0.0000 E_vdwl   =       768.2892 
E_coul   =     14728.9897 E_long   =    -19495.6660 Press    =       310.4820 
Volume   =     10769.7724 
SHAKE stats (type/ave/delta) on step 2495000
  2 1.08999 2.31693e-07
  4 0.944994 0
  5 0.999995 3.70007e-06
  6 109.47 0.000396653
---------------- Step  2495000 ----- CPU =   6942.2833 (sec) ----------------
TotEng   =     -3323.5396 KinEng   =       677.8055 Temp     =       312.9216 
PotEng   =     -4001.3450 E_bond   =         1.4689 E_angle  =         4.3988 
E_dihed  =         0.2388 E_impro  =         0.0000 E_vdwl   =       741.9304 
E_coul   =     14747.8735 E_long   =    -19497.2555 Press    =      -645.7694 
Volume   =     10962.3593 
SHAKE stats (type/ave/delta) on step 2500000
  2 1.08988 6.08566e-06
  4 0.944893 0
  5 0.999889 9.81933e-06
  6 109.47 0.000966703
---------------- Step  2500000 ----- CPU =   6956.5962 (sec) ----------------
TotEng   =     -3327.3391 KinEng   =       648.0819 Temp     =       299.1991 
PotEng   =     -3975.4210 E_bond   =         0.3949 E_angle  =         4.2907 
E_dihed  =         0.2568 E_impro  =         0.0000 E_vdwl   =       761.0035 
E_coul   =     14757.7956 E_long   =    -19499.1626 Press    =       -88.2537 
Volume   =     11169.0925 
Loop time of 6956.6 on 8 procs for 2500000 steps with 1090 atoms

Pair  time (%) = 3651.56 (52.4906)
Bond  time (%) = 9.38317 (0.134882)
Kspce time (%) = 1285.77 (18.4828)
Neigh time (%) = 486.512 (6.99354)
Comm  time (%) = 651.805 (9.36959)
Outpt time (%) = 0.226707 (0.00325888)
Other time (%) = 871.34 (12.5254)

FFT time (% of Kspce) = 163.848 (12.7432)
FFT Gflps 3d (1d only) = 3.93101 52.5777

Nlocal:    136.25 ave 147 max 119 min
Histogram: 1 0 0 1 0 1 1 2 0 2
Nghost:    4130.38 ave 4226 max 4058 min
Histogram: 2 1 0 2 0 0 0 2 0 1
Neighs:    48099.2 ave 56280 max 41056 min
Histogram: 1 1 0 1 1 2 1 0 0 1

Total # of neighbors = 384794
Ave neighs/atom = 353.022
Ave special neighs/atom = 2.05872
Neighbor list builds = 206311
Dangerous builds = 32988

write_restart restart.*.lmp
PPPM initialization ...
  G vector (1/distance) = 0.266993
  grid = 12 12 12
  stencil order = 5
  estimated absolute RMS force accuracy = 0.0265471
  estimated relative force accuracy = 7.99457e-05
  using double precision FFTs
  3d grid and FFT values/proc = 2197 288
write_data data.*.lmp
PPPM initialization ...
  G vector (1/distance) = 0.266993
  grid = 12 12 12
  stencil order = 5
  estimated absolute RMS force accuracy = 0.0265471
  estimated relative force accuracy = 7.99457e-05
  using double precision FFTs
  3d grid and FFT values/proc = 2197 288
